172
Mode 6 Frame: * (null), Energy   -1000.0000000
O -2.129142 -0.462643 0.393647
C -2.112100 0.644826 -0.177227
N -3.203348 1.243393 -0.802897
C -4.548160 0.640242 -0.872313
C -2.866825 2.581267 -1.097408
C -3.657850 3.626205 -1.570374
C -3.059790 4.875447 -1.778844
C -1.700247 5.077714 -1.520581
C -0.907680 4.034327 -1.037089
C -1.488109 2.782846 -0.813926
C -0.974796 1.535715 -0.294774
O 0.227412 1.144692 -0.054924
C 0.591504 1.049859 1.974095
C -0.207268 2.126828 2.331773
C -1.600672 2.131368 2.216419
C -2.057002 3.490168 2.257509
C -0.918726 4.326467 2.351723
C -1.028229 5.718883 2.361712
C -2.309734 6.262269 2.271508
C -3.450490 5.447766 2.174270
C -3.333619 4.061853 2.164860
H -4.717052 3.492330 -1.779694
H -3.672810 5.699856 -2.146399
H -1.257164 6.061174 -1.687574
H 0.148932 4.193347 -0.817228
H -0.151011 6.358659 2.437728
H -2.422845 7.347711 2.272969
H -4.436862 5.908917 2.100763
H -4.212211 3.419652 2.078508
H 1.679216 1.108667 1.979221
H 0.135747 0.062318 2.041904
N 0.211911 3.494643 2.400306
H -2.217535 1.236661 2.236156
S 1.759369 4.026288 2.756143
O 1.647723 5.212001 3.588734
O 2.490508 2.875602 3.265295
C -5.246677 0.994997 -2.201420
C -4.503326 1.265314 -3.356749
C -6.636140 0.868416 -2.318185
C -5.136695 1.452752 -4.584852
H -3.416464 1.331519 -3.301474
C -7.271476 1.058253 -3.545408
H -7.234031 0.603004 -1.444557
C -6.524954 1.360154 -4.684178
H -4.536217 1.670892 -5.469686
H -8.356565 0.961416 -3.609192
H -7.020571 1.510137 -5.644656
C -5.286921 1.108626 0.396227
C -4.944963 0.518917 1.624493
C -6.183842 2.182013 0.404076
C -5.513799 0.963224 2.816045
H -4.223055 -0.300209 1.637509
C -6.757200 2.627714 1.599225
H -6.456879 2.680702 -0.525786
C -6.432445 2.015846 2.807583
H -5.238054 0.482635 3.756367
H -7.460642 3.461776 1.577299
H -6.882916 2.361577 3.739397
C -4.457506 -0.903191 -0.997580
C -3.498249 -1.485025 -1.841344
C -5.421192 -1.730876 -0.420578
C -3.480012 -2.856785 -2.066594
H -2.738838 -0.857525 -2.314739
C -5.412892 -3.111116 -0.655019
H -6.194563 -1.308220 0.221954
C -4.442025 -3.681231 -1.471749
H -2.700971 -3.288313 -2.700476
H -6.169092 -3.738048 -0.180277
H -4.426009 -4.759255 -1.641568
C 2.455545 4.497011 1.200612
C 2.434620 3.601026 0.131121
C 3.140511 5.708392 1.132501
C 3.130986 3.937997 -1.026354
H 1.868973 2.664107 0.183808
C 3.839551 6.017835 -0.031288
H 3.133956 6.388005 1.985959
C 3.857544 5.133855 -1.117914
H 3.128272 3.248920 -1.874192
H 4.394346 6.956970 -0.091842
C 4.679818 5.454137 -2.334462
H 5.745970 5.482113 -2.059982
H 4.542501 4.702288 -3.121874
H 4.419012 6.442766 -2.738796
H -1.111892 -1.668769 -0.052319
N -0.619310 -2.544052 -0.335148
C 0.110286 -2.476093 -1.477435
C -1.028533 -3.643780 0.421704
N 0.245085 -1.208104 -1.923398
S 0.729330 -3.827433 -2.285993
C -0.238735 -4.768558 0.674351
C -2.288770 -3.534926 1.035439
C 1.222379 -0.749641 -2.893758
H -0.089146 -0.477474 -1.290988
C -0.718334 -5.761930 1.531944
H 0.748343 -4.855386 0.221889
C -2.740357 -4.536899 1.880872
H -2.898565 -2.650835 0.833263
C 2.282313 0.127030 -2.178439
H 1.719340 -1.651076 -3.278969
C 0.550629 -0.039372 -4.095435
C 0.179640 -6.937676 1.804371
C -1.963007 -5.667741 2.143657
C -4.112081 -4.430034 2.489638
N 2.518702 -0.338436 -0.814460
H 1.944998 1.174426 -2.140115
H 3.219897 0.100204 -2.752765
C 1.640192 0.497429 -5.030438
C -0.298844 -1.070429 -4.845914
C -0.354358 1.109181 -3.633961
F -0.343174 -7.781570 2.692827
F 0.436842 -7.634660 0.695002
F 1.366885 -6.539716 2.285404
H -2.317058 -6.448843 2.816842
F -5.007219 -5.162730 1.815611
F -4.127180 -4.872137 3.750300
F -4.562116 -3.174348 2.500078
H 1.777317 -0.021826 -0.180738
P 3.993210 -0.550739 -0.103457
H 2.346283 -0.300993 -5.309424
H 2.209068 1.318847 -4.569363
H 1.183487 0.886243 -5.952614
H -0.812737 -0.594414 -5.694733
H -1.060225 -1.506888 -4.180974
H 0.325421 -1.890586 -5.232118
H -0.801400 1.605531 -4.509120
H 0.188274 1.872626 -3.055588
H -1.177262 0.738819 -3.001421
C 4.949251 -1.629407 -1.173704
C 4.918886 0.963316 0.182849
C 3.623498 -1.377441 1.447809
C 4.267235 -2.606667 -1.906851
C 6.354932 -1.608798 -1.191745
C 4.783109 1.675184 1.380643
C 5.670215 1.528107 -0.867282
C 4.584322 -1.442189 2.472631
C 2.422707 -2.083474 1.587670
C 4.960713 -3.530132 -2.683517
H 3.176551 -2.671379 -1.867980
C 7.052328 -2.525338 -1.960297
H 6.910535 -0.876391 -0.602826
C 5.403219 2.910770 1.553664
H 4.171491 1.287995 2.198716
C 6.289330 2.753808 -0.703549
H 5.773680 1.006298 -1.821414
C 4.330238 -2.174747 3.618952
H 5.537707 -0.917435 2.374286
C 2.159026 -2.821574 2.739174
H 1.672235 -2.067111 0.794324
C 6.362824 -3.488664 -2.719617
H 4.399253 -4.274710 -3.246504
H 8.142201 -2.521566 -1.992885
C 6.162522 3.456097 0.509787
H 5.258067 3.445709 2.491211
H 6.881067 3.198248 -1.504607
C 3.114166 -2.869047 3.765056
H 5.060926 -2.231894 4.426188
H 1.213775 -3.357804 2.820719
O 7.118505 -4.327240 -3.439437
O 6.788310 4.639564 0.574723
O 2.952256 -3.550049 4.905420
C 6.479785 -5.331124 -4.205234
C 6.786519 5.340441 1.804252
C 1.751392 -4.275359 5.099020
H 5.815814 -4.886959 -4.962437
H 5.897834 -6.007581 -3.560945
H 7.275904 -5.894332 -4.702363
H 7.385222 6.243423 1.646907
H 7.238968 4.730376 2.601018
H 5.764517 5.624365 2.096934
H 1.626731 -5.043860 4.321533
H 1.834981 -4.754466 6.079573
H 0.880314 -3.602357 5.091844
172
Mode 6 Frame: * Frequency(6) -333.8800
O -2.125043 -0.468910 0.397644
C -2.093728 0.642759 -0.187606
N -3.199526 1.244688 -0.804803
C -4.543456 0.641260 -0.872155
C -2.864002 2.575876 -1.100463
C -3.654163 3.624545 -1.571451
C -3.059093 4.874338 -1.778330
C -1.698156 5.072833 -1.518157
C -0.905078 4.028882 -1.037462
C -1.478812 2.769669 -0.814940
C -0.979152 1.520876 -0.302468
O 0.244416 1.145870 0.039986
C 0.558743 1.062687 1.841171
C -0.224288 2.139790 2.335734
C -1.601920 2.136924 2.255868
C -2.059267 3.495770 2.272937
C -0.919494 4.329024 2.355530
C -1.028716 5.723727 2.363547
C -2.308509 6.263063 2.271473
C -3.451935 5.448229 2.173444
C -3.336740 4.064436 2.171178
H -4.713984 3.489782 -1.778353
H -3.671695 5.700118 -2.143515
H -1.253362 6.056393 -1.682059
H 0.150685 4.193646 -0.817498
H -0.151611 6.364174 2.434651
H -2.422962 7.348422 2.268076
H -4.436898 5.911121 2.094173
H -4.214389 3.420880 2.085180
H 1.649139 1.127546 1.858459
H 0.134615 0.066925 2.028972
N 0.206820 3.497985 2.393628
H -2.214601 1.237444 2.213804
S 1.760308 4.025770 2.754777
O 1.648216 5.208949 3.589535
O 2.482198 2.867513 3.260860
C -5.245432 0.994519 -2.201120
C -4.503176 1.265120 -3.357163
C -6.635087 0.868082 -2.317812
C -5.136945 1.452496 -4.585002
H -3.416550 1.332158 -3.301104
C -7.271157 1.058123 -3.544839
H -7.232838 0.602610 -1.444073
C -6.525279 1.360071 -4.684004
H -4.536766 1.670793 -5.470046
H -8.356320 0.961388 -3.608086
H -7.021311 1.510241 -5.644262
C -5.285017 1.109083 0.395820
C -4.943716 0.519519 1.624388
C -6.182954 2.181790 0.403890
C -5.513514 0.963069 2.815820
H -4.218703 -0.297041 1.635825
C -6.756924 2.627388 1.599014
H -6.455750 2.680585 -0.525995
C -6.432503 2.015600 2.807492
H -5.237990 0.482477 3.756268
H -7.460587 3.461311 1.576884
H -6.883347 2.361105 3.739235
C -4.456032 -0.902543 -0.996977
C -3.497196 -1.485148 -1.840750
C -5.420467 -1.730136 -0.420819
C -3.479909 -2.856707 -2.066606
H -2.737260 -0.856915 -2.312252
C -5.412797 -3.110592 -0.655162
H -6.193773 -1.307323 0.221744
C -4.442221 -3.681115 -1.471849
H -2.700975 -3.288596 -2.700438
H -6.169277 -3.737245 -0.180414
H -4.426554 -4.759158 -1.641746
C 2.455770 4.496656 1.200046
C 2.435439 3.601882 0.129746
C 3.140480 5.708367 1.132793
C 3.131901 3.938830 -1.027102
H 1.868800 2.666247 0.176171
C 3.839650 6.018123 -0.030827
H 3.133920 6.387904 1.986298
C 3.858257 5.134607 -1.117900
H 3.128333 3.250185 -1.875174
H 4.394119 6.957445 -0.090804
C 4.680221 5.454877 -2.334403
H 5.746359 5.482921 -2.059906
H 4.542711 4.702985 -3.121696
H 4.419254 6.443522 -2.738538
H -1.127808 -1.664090 -0.054396
N -0.622946 -2.541173 -0.334989
C 0.108418 -2.474377 -1.475318
C -1.029017 -3.642398 0.421156
N 0.243353 -1.207023 -1.924456
S 0.729944 -3.826108 -2.284489
C -0.239040 -4.767540 0.674007
C -2.289323 -3.534464 1.035509
C 1.221099 -0.748700 -2.894003
H -0.123123 -0.474881 -1.311611
C -0.718309 -5.761287 1.531765
H 0.747839 -4.854729 0.221182
C -2.740456 -4.536662 1.880776
H -2.897993 -2.649473 0.833137
C 2.281564 0.127586 -2.179607
H 1.717793 -1.650876 -3.277593
C 0.550341 -0.039199 -4.096519
C 0.179503 -6.937229 1.804163
C -1.962975 -5.667550 2.143540
C -4.112075 -4.429971 2.489524
N 2.520403 -0.341335 -0.817823
H 1.942782 1.174914 -2.138270
H 3.218270 0.104040 -2.755439
C 1.640596 0.496933 -5.031015
C -0.298686 -1.070840 -4.846605
C -0.355138 1.109878 -3.637694
F -0.343229 -7.781278 2.692678
F 0.436840 -7.634504 0.694954
F 1.366931 -6.539615 2.285369
H -2.316933 -6.448800 2.816589
F -5.007306 -5.162792 1.815699
F -4.127182 -4.872192 3.750339
F -4.562265 -3.174390 2.500254
H 1.769100 -0.038146 -0.190889
P 3.993492 -0.551131 -0.104006
H 2.347078 -0.301389 -5.309376
H 2.208997 1.318812 -4.570134
H 1.184262 0.885351 -5.953537
H -0.812269 -0.595215 -5.695815
H -1.060388 -1.506682 -4.181678
H 0.325544 -1.891361 -5.232131
H -0.799646 1.604727 -4.515050
H 0.186288 1.874703 -3.060122
H -1.178481 0.742983 -3.004336
C 4.949852 -1.629541 -1.173710
C 4.918474 0.963411 0.182631
C 3.623138 -1.377365 1.447571
C 4.267516 -2.606664 -1.906850
C 6.355455 -1.608905 -1.191769
C 4.783091 1.675067 1.380612
C 5.670029 1.528156 -0.867361
C 4.584104 -1.442142 2.472407
C 2.422575 -2.083917 1.587464
C 4.960860 -3.530151 -2.683509
H 3.176816 -2.671317 -1.867933
C 7.052660 -2.525448 -1.960395
H 6.911130 -0.876524 -0.602877
C 5.403330 2.910584 1.553810
H 4.171620 1.287359 2.198564
C 6.289235 2.753808 -0.703533
H 5.773507 1.006406 -1.821523
C 4.330159 -2.174722 3.618733
H 5.537527 -0.917469 2.373988
C 2.158942 -2.821851 2.739124
H 1.671977 -2.069017 0.794003
C 6.362982 -3.488732 -2.719663
H 4.399293 -4.274671 -3.246470
H 8.142523 -2.521775 -1.993152
C 6.162540 3.456058 0.509847
H 5.259162 3.445234 2.491699
H 6.881037 3.198208 -1.504567
C 3.114116 -2.869143 3.765042
H 5.061009 -2.231909 4.425826
H 1.213976 -3.358648 2.820327
O 7.118547 -4.327287 -3.439474
O 6.788169 4.639508 0.574763
O 2.952258 -3.549978 4.905334
C 6.479770 -5.331172 -4.205285
C 6.786653 5.340429 1.804306
C 1.751415 -4.275495 5.099024
H 5.815804 -4.886955 -4.962451
H 5.897832 -6.007599 -3.560964
H 7.275879 -5.894375 -4.702424
H 7.385283 6.243415 1.646789
H 7.239295 4.730377 2.600957
H 5.764720 5.624370 2.097215
H 1.626881 -5.044013 4.321553
H 1.835139 -4.754513 6.079594
H 0.880300 -3.602553 5.091839
172
Mode 6 Frame: * Frequency(6) -333.8800
O -2.121388 -0.474497 0.401207
C -2.077347 0.640916 -0.196860
N -3.196118 1.245842 -0.806502
C -4.539261 0.642167 -0.872013
C -2.861484 2.571069 -1.103186
C -3.650875 3.623065 -1.572412
C -3.058472 4.873350 -1.777871
C -1.696292 5.068481 -1.515995
C -0.902758 4.024026 -1.037795
C -1.470522 2.757921 -0.815844
C -0.983037 1.507645 -0.309327
O 0.259576 1.146921 0.124612
C 0.529532 1.074124 1.722651
C -0.239464 2.151347 2.339266
C -1.603033 2.141879 2.291042
C -2.061286 3.500765 2.286693
C -0.920179 4.331303 2.358924
C -1.029150 5.728046 2.365183
C -2.307417 6.263771 2.271442
C -3.453223 5.448643 2.172708
C -3.339523 4.066739 2.176812
H -4.711249 3.487510 -1.777158
H -3.670701 5.700352 -2.140943
H -1.249972 6.052130 -1.677141
H 0.152249 4.193912 -0.817739
H -0.152145 6.369090 2.431907
H -2.423066 7.349055 2.263714
H -4.436931 5.913085 2.088298
H -4.216331 3.421975 2.091129
H 1.622320 1.144379 1.750784
H 0.133605 0.071033 2.017442
N 0.202281 3.500965 2.387674
H -2.211986 1.238143 2.193875
S 1.761146 4.025309 2.753559
O 1.648656 5.206229 3.590249
O 2.474789 2.860300 3.256906
C -5.244323 0.994092 -2.200853
C -4.503042 1.264947 -3.357532
C -6.634148 0.867785 -2.317479
C -5.137168 1.452267 -4.585135
H -3.416626 1.332728 -3.300774
C -7.270873 1.058007 -3.544332
H -7.231773 0.602258 -1.443642
C -6.525569 1.359996 -4.683849
H -4.537255 1.670705 -5.470366
H -8.356102 0.961364 -3.607100
H -7.021971 1.510334 -5.643910
C -5.283318 1.109491 0.395457
C -4.942604 0.520056 1.624295
C -6.182161 2.181592 0.403724
C -5.513260 0.962931 2.815620
H -4.214823 -0.294217 1.634324
C -6.756678 2.627098 1.598826
H -6.454744 2.680481 -0.526181
C -6.432554 2.015380 2.807411
H -5.237934 0.482337 3.756180
H -7.460538 3.460897 1.576514
H -6.883731 2.360685 3.739090
C -4.454717 -0.901965 -0.996440
C -3.496257 -1.485258 -1.840221
C -5.419821 -1.729477 -0.421034
C -3.479817 -2.856638 -2.066617
H -2.735854 -0.856371 -2.310035
C -5.412712 -3.110125 -0.655289
H -6.193068 -1.306523 0.221556
C -4.442396 -3.681011 -1.471938
H -2.700978 -3.288849 -2.700405
H -6.169442 -3.736529 -0.180535
H -4.427040 -4.759072 -1.641905
C 2.455971 4.496339 1.199541
C 2.436170 3.602644 0.128519
C 3.140452 5.708345 1.133053
C 3.132716 3.939572 -1.027770
H 1.868647 2.668155 0.169361
C 3.839738 6.018380 -0.030416
H 3.133888 6.387813 1.986600
C 3.858894 5.135277 -1.117887
H 3.128388 3.251313 -1.876050
H 4.393917 6.957868 -0.089879
C 4.680581 5.455537 -2.334350
H 5.746705 5.483642 -2.059838
H 4.542899 4.703607 -3.121538
H 4.419469 6.444195 -2.738309
H -1.141999 -1.659919 -0.056247
N -0.626188 -2.538605 -0.334848
C 0.106752 -2.472846 -1.473430
C -1.029449 -3.641165 0.420667
N 0.241809 -1.206059 -1.925400
S 0.730491 -3.824926 -2.283147
C -0.239313 -4.766633 0.673700
C -2.289816 -3.534053 1.035572
C 1.219958 -0.747861 -2.894221
H -0.153418 -0.472568 -1.329999
C -0.718287 -5.760713 1.531606
H 0.747390 -4.854144 0.220551
C -2.740545 -4.536451 1.880690
H -2.897484 -2.648259 0.833024
C 2.280896 0.128081 -2.180649
H 1.716413 -1.650698 -3.276366
C 0.550085 -0.039045 -4.097485
C 0.179380 -6.936830 1.803978
C -1.962946 -5.667380 2.143436
C -4.112069 -4.429914 2.489423
N 2.521919 -0.343920 -0.820821
H 1.940807 1.175350 -2.136625
H 3.216819 0.107459 -2.757823
C 1.640956 0.496490 -5.031530
C -0.298545 -1.071207 -4.847220
C -0.355834 1.110499 -3.641022
F -0.343277 -7.781018 2.692545
F 0.436838 -7.634365 0.694912
F 1.366972 -6.539526 2.285338
H -2.316821 -6.448761 2.816364
F -5.007383 -5.162847 1.815777
F -4.127184 -4.872241 3.750373
F -4.562398 -3.174428 2.500411
H 1.761774 -0.052698 -0.199940
P 3.993744 -0.551481 -0.104496
H 2.347786 -0.301742 -5.309332
H 2.208933 1.318781 -4.570821
H 1.184952 0.884556 -5.954361
H -0.811851 -0.595930 -5.696780
H -1.060532 -1.506498 -4.182306
H 0.325654 -1.892052 -5.232143
H -0.798081 1.604010 -4.520337
H 0.184517 1.876555 -3.064165
H -1.179568 0.746697 -3.006934
C 4.950389 -1.629661 -1.173716
C 4.918107 0.963496 0.182438
C 3.622818 -1.377297 1.447358
C 4.267766 -2.606661 -1.906849
C 6.355922 -1.609000 -1.191791
C 4.783075 1.674962 1.380585
C 5.669863 1.528199 -0.867431
C 4.583910 -1.442100 2.472207
C 2.422458 -2.084311 1.587280
C 4.960990 -3.530167 -2.683502
H 3.177053 -2.671262 -1.867891
C 7.052956 -2.525545 -1.960481
H 6.911661 -0.876643 -0.602922
C 5.403429 2.910418 1.553940
H 4.171735 1.286792 2.198429
C 6.289150 2.753808 -0.703519
H 5.773352 1.006502 -1.821620
C 4.330088 -2.174699 3.618538
H 5.537366 -0.917499 2.373721
C 2.158866 -2.822098 2.739079
H 1.671747 -2.070716 0.793716
C 6.363122 -3.488793 -2.719704
H 4.399329 -4.274636 -3.246440
H 8.142810 -2.521961 -1.993389
C 6.162557 3.456023 0.509900
H 5.260138 3.444810 2.492134
H 6.881011 3.198173 -1.504530
C 3.114071 -2.869228 3.765029
H 5.061083 -2.231923 4.425504
H 1.214155 -3.359400 2.819978
O 7.118584 -4.327329 -3.439507
O 6.788043 4.639459 0.574798
O 2.952260 -3.549914 4.905258
C 6.479757 -5.331214 -4.205330
C 6.786773 5.340418 1.804354
C 1.751436 -4.275617 5.099027
H 5.815796 -4.886952 -4.962464
H 5.897830 -6.007615 -3.560981
H 7.275857 -5.894412 -4.702479
H 7.385337 6.243408 1.646685
H 7.239587 4.730378 2.600902
H 5.764901 5.624374 2.097466
H 1.627016 -5.044149 4.321571
H 1.835279 -4.754555 6.079613
H 0.880288 -3.602728 5.091835
172
Mode 6 Frame: * Frequency(6) -333.8800
O -2.118573 -0.478800 0.403952
C -2.064732 0.639496 -0.203987
N -3.193494 1.246731 -0.807811
C -4.536031 0.642866 -0.871905
C -2.859546 2.567368 -1.105283
C -3.648344 3.621925 -1.573152
C -3.057994 4.872588 -1.777518
C -1.694856 5.065130 -1.514330
C -0.900972 4.020287 -1.038051
C -1.464138 2.748873 -0.816541
C -0.986028 1.497456 -0.314610
O 0.271252 1.147730 0.189782
C 0.507037 1.082933 1.631378
C -0.251151 2.160247 2.341986
C -1.603890 2.145694 2.318129
C -2.062842 3.504611 2.297286
C -0.920706 4.333059 2.361538
C -1.029484 5.731372 2.366443
C -2.306575 6.264316 2.271418
C -3.454215 5.448961 2.172142
C -3.341666 4.068513 2.181150
H -4.709142 3.485760 -1.776238
H -3.669935 5.700532 -2.138962
H -1.247361 6.048847 -1.673354
H 0.153453 4.194118 -0.817925
H -0.152557 6.372877 2.429794
H -2.423147 7.349543 2.260354
H -4.436956 5.914598 2.083773
H -4.217827 3.422819 2.095710
H 1.601668 1.157343 1.667863
H 0.132827 0.074196 2.008562
N 0.198785 3.503260 2.383088
H -2.209971 1.238681 2.178527
S 1.761790 4.024953 2.752621
O 1.648995 5.204133 3.590799
O 2.469083 2.854746 3.253861
C -5.243468 0.993764 -2.200648
C -4.502939 1.264814 -3.357817
C -6.633425 0.867556 -2.317223
C -5.137339 1.452091 -4.585238
H -3.416685 1.333166 -3.300520
C -7.270654 1.057918 -3.543941
H -7.230954 0.601987 -1.443309
C -6.525792 1.359939 -4.683730
H -4.537632 1.670636 -5.470613
H -8.355934 0.961345 -3.606340
H -7.022479 1.510406 -5.643639
C -5.282011 1.109805 0.395177
C -4.941748 0.520469 1.624223
C -6.181551 2.181439 0.403596
C -5.513065 0.962824 2.815466
H -4.211835 -0.292042 1.633168
C -6.756489 2.626874 1.598681
H -6.453969 2.680400 -0.526325
C -6.432593 2.015211 2.807349
H -5.237890 0.482228 3.756111
H -7.460501 3.460578 1.576230
H -6.884027 2.360361 3.738979
C -4.453705 -0.901520 -0.996026
C -3.495534 -1.485343 -1.839813
C -5.419323 -1.728969 -0.421199
C -3.479747 -2.856585 -2.066626
H -2.734770 -0.855952 -2.308328
C -5.412646 -3.109765 -0.655386
H -6.192525 -1.305906 0.221412
C -4.442531 -3.680931 -1.472007
H -2.700981 -3.289043 -2.700379
H -6.169569 -3.735978 -0.180629
H -4.427414 -4.759005 -1.642027
C 2.456126 4.496094 1.199152
C 2.436733 3.603232 0.127575
C 3.140431 5.708328 1.133253
C 3.133344 3.940144 -1.028284
H 1.868528 2.669624 0.164117
C 3.839806 6.018578 -0.030100
H 3.133863 6.387744 1.986833
C 3.859384 5.135793 -1.117878
H 3.128430 3.252181 -1.876725
H 4.393762 6.958194 -0.089167
C 4.680858 5.456046 -2.334309
H 5.746972 5.484197 -2.059785
H 4.543044 4.704086 -3.121416
H 4.419635 6.444714 -2.738132
H -1.152928 -1.656706 -0.057673
N -0.628685 -2.536628 -0.334739
C 0.105470 -2.471667 -1.471976
C -1.029782 -3.640216 0.420291
N 0.240620 -1.205317 -1.926127
S 0.730913 -3.824016 -2.282114
C -0.239523 -4.765934 0.673463
C -2.290196 -3.533736 1.035621
C 1.219079 -0.747214 -2.894390
H -0.176748 -0.470788 -1.344160
C -0.718270 -5.760272 1.531483
H 0.747044 -4.853693 0.220066
C -2.740613 -4.536289 1.880624
H -2.897091 -2.647324 0.832937
C 2.280381 0.128463 -2.181451
H 1.715351 -1.650560 -3.275421
C 0.549887 -0.038927 -4.098230
C 0.179286 -6.936523 1.803836
C -1.962924 -5.667249 2.143356
C -4.112065 -4.429871 2.489345
N 2.523087 -0.345911 -0.823130
H 1.939286 1.175685 -2.135358
H 3.215702 0.110093 -2.759659
C 1.641233 0.496150 -5.031926
C -0.298436 -1.071489 -4.847694
C -0.356370 1.110978 -3.643585
F -0.343315 -7.780818 2.692443
F 0.436836 -7.634257 0.694880
F 1.367003 -6.539456 2.285314
H -2.316735 -6.448732 2.816191
F -5.007443 -5.162889 1.815837
F -4.127185 -4.872278 3.750400
F -4.562501 -3.174456 2.500532
H 1.756133 -0.063904 -0.206910
P 3.993938 -0.551750 -0.104873
H 2.348332 -0.302014 -5.309299
H 2.208884 1.318757 -4.571350
H 1.185484 0.883944 -5.954995
H -0.811529 -0.596480 -5.697523
H -1.060644 -1.506356 -4.182790
H 0.325738 -1.892584 -5.232151
H -0.796877 1.603458 -4.524409
H 0.183153 1.877982 -3.067279
H -1.180405 0.749556 -3.008935
C 4.950802 -1.629753 -1.173720
C 4.917824 0.963561 0.182288
C 3.622571 -1.377245 1.447195
C 4.267959 -2.606658 -1.906848
C 6.356282 -1.609073 -1.191808
C 4.783063 1.674882 1.380564
C 5.669736 1.528232 -0.867485
C 4.583761 -1.442068 2.472053
C 2.422368 -2.084615 1.587138
C 4.961091 -3.530180 -2.683496
H 3.177235 -2.671219 -1.867859
C 7.053184 -2.525620 -1.960548
H 6.912070 -0.876735 -0.602957
C 5.403506 2.910291 1.554041
H 4.171824 1.286355 2.198325
C 6.289085 2.753807 -0.703509
H 5.773233 1.006576 -1.821695
C 4.330034 -2.174682 3.618388
H 5.537243 -0.917522 2.373517
C 2.158809 -2.822288 2.739045
H 1.671569 -2.072025 0.793495
C 6.363230 -3.488839 -2.719736
H 4.399357 -4.274609 -3.246417
H 8.143031 -2.522104 -1.993572
C 6.162569 3.455996 0.509941
H 5.260889 3.444484 2.492469
H 6.880991 3.198145 -1.504503
C 3.114036 -2.869294 3.765020
H 5.061140 -2.231933 4.425256
H 1.214293 -3.359979 2.819709
O 7.118613 -4.327362 -3.439533
O 6.787947 4.639420 0.574825
O 2.952262 -3.549866 4.905199
C 6.479746 -5.331246 -4.205365
C 6.786865 5.340410 1.804391
C 1.751452 -4.275711 5.099029
H 5.815789 -4.886949 -4.962474
H 5.897829 -6.007627 -3.560994
H 7.275840 -5.894442 -4.702521
H 7.385378 6.243403 1.646604
H 7.239812 4.730378 2.600860
H 5.765040 5.624377 2.097659
H 1.627119 -5.044254 4.321585
H 1.835388 -4.754587 6.079627
H 0.880279 -3.602863 5.091832
172
Mode 6 Frame: * Frequency(6) -333.8800
O -2.116904 -0.481352 0.405579
C -2.057250 0.638654 -0.208214
N -3.191938 1.247258 -0.808587
C -4.534115 0.643280 -0.871840
C -2.858396 2.565172 -1.106527
C -3.646842 3.621249 -1.573590
C -3.057710 4.872137 -1.777309
C -1.694005 5.063142 -1.513343
C -0.899912 4.018070 -1.038203
C -1.460352 2.743507 -0.816954
C -0.987802 1.491413 -0.317743
O 0.278177 1.148210 0.228434
C 0.493695 1.088157 1.577245
C -0.258083 2.165526 2.343599
C -1.604398 2.147957 2.334195
C -2.063764 3.506892 2.303569
C -0.921019 4.334100 2.363089
C -1.029682 5.733345 2.367191
C -2.306076 6.264639 2.271403
C -3.454804 5.449150 2.171805
C -3.342937 4.069565 2.183723
H -4.707893 3.484722 -1.775692
H -3.669481 5.700639 -2.137788
H -1.245813 6.046899 -1.671108
H 0.154167 4.194239 -0.818035
H -0.152801 6.375123 2.428541
H -2.423194 7.349833 2.258362
H -4.436971 5.915496 2.081090
H -4.218714 3.423319 2.098427
H 1.589419 1.165031 1.618683
H 0.132366 0.076072 2.003296
N 0.196711 3.504622 2.380369
H -2.208777 1.239000 2.169424
S 1.762173 4.024742 2.752065
O 1.649196 5.202890 3.591125
O 2.465698 2.851451 3.252055
C -5.242961 0.993569 -2.200526
C -4.502878 1.264734 -3.357985
C -6.632996 0.867420 -2.317071
C -5.137441 1.451987 -4.585299
H -3.416720 1.333426 -3.300369
C -7.270524 1.057866 -3.543710
H -7.230468 0.601827 -1.443112
C -6.525924 1.359905 -4.683659
H -4.537855 1.670596 -5.470760
H -8.355834 0.961334 -3.605890
H -7.022780 1.510448 -5.643479
C -5.281235 1.109991 0.395011
C -4.941240 0.520715 1.624181
C -6.181189 2.181349 0.403520
C -5.512949 0.962761 2.815375
H -4.210062 -0.290752 1.632482
C -6.756377 2.626742 1.598595
H -6.453509 2.680353 -0.526410
C -6.432617 2.015110 2.807312
H -5.237864 0.482164 3.756071
H -7.460478 3.460388 1.576061
H -6.884202 2.360169 3.738913
C -4.453104 -0.901256 -0.995780
C -3.495105 -1.485393 -1.839571
C -5.419028 -1.728668 -0.421297
C -3.479705 -2.856554 -2.066631
H -2.734128 -0.855703 -2.307315
C -5.412608 -3.109552 -0.655444
H -6.192204 -1.305541 0.221326
C -4.442611 -3.680884 -1.472048
H -2.700983 -3.289159 -2.700363
H -6.169644 -3.735651 -0.180685
H -4.427636 -4.758966 -1.642100
C 2.456217 4.495950 1.198921
C 2.437066 3.603580 0.127015
C 3.140418 5.708317 1.133372
C 3.133717 3.940483 -1.028589
H 1.868458 2.670495 0.161007
C 3.839846 6.018695 -0.029912
H 3.133848 6.387702 1.986971
C 3.859674 5.136099 -1.117872
H 3.128455 3.252696 -1.877125
H 4.393669 6.958388 -0.088744
C 4.681022 5.456347 -2.334285
H 5.747130 5.484526 -2.059754
H 4.543129 4.704370 -3.121343
H 4.419733 6.445022 -2.738027
H -1.159410 -1.654801 -0.058519
N -0.630166 -2.535456 -0.334674
C 0.104709 -2.470968 -1.471114
C -1.029979 -3.639653 0.420068
N 0.239914 -1.204877 -1.926558
S 0.731163 -3.823476 -2.281501
C -0.239647 -4.765520 0.673323
C -2.290421 -3.533548 1.035649
C 1.218558 -0.746831 -2.894490
H -0.190586 -0.469731 -1.352558
C -0.718260 -5.760010 1.531410
H 0.746839 -4.853426 0.219778
C -2.740654 -4.536193 1.880584
H -2.896858 -2.646769 0.832886
C 2.280076 0.128689 -2.181927
H 1.714721 -1.650479 -3.274860
C 0.549770 -0.038856 -4.098671
C 0.179230 -6.936341 1.803751
C -1.962911 -5.667172 2.143309
C -4.112063 -4.429845 2.489299
N 2.523779 -0.347091 -0.824499
H 1.938383 1.175884 -2.134607
H 3.215039 0.111655 -2.760748
C 1.641397 0.495948 -5.032162
C -0.298372 -1.071657 -4.847976
C -0.356688 1.111262 -3.645105
F -0.343337 -7.780699 2.692382
F 0.436835 -7.634194 0.694860
F 1.367022 -6.539415 2.285300
H -2.316684 -6.448714 2.816088
F -5.007478 -5.162914 1.815873
F -4.127186 -4.872301 3.750415
F -4.562562 -3.174474 2.500603
H 1.752786 -0.070551 -0.211044
P 3.994053 -0.551910 -0.105097
H 2.348655 -0.302175 -5.309279
H 2.208855 1.318742 -4.571663
H 1.185800 0.883581 -5.955371
H -0.811338 -0.596806 -5.697964
H -1.060710 -1.506272 -4.183077
H 0.325788 -1.892899 -5.232157
H -0.796162 1.603131 -4.526823
H 0.182345 1.878828 -3.069126
H -1.180901 0.751252 -3.010122
C 4.951047 -1.629807 -1.173722
C 4.917656 0.963600 0.182200
C 3.622424 -1.377214 1.447098
C 4.268074 -2.606657 -1.906848
C 6.356495 -1.609117 -1.191818
C 4.783056 1.674834 1.380551
C 5.669660 1.528252 -0.867517
C 4.583672 -1.442049 2.471961
C 2.422314 -2.084795 1.587054
C 4.961151 -3.530188 -2.683493
H 3.177344 -2.671194 -1.867840
C 7.053319 -2.525665 -1.960588
H 6.912313 -0.876789 -0.602978
C 5.403551 2.910215 1.554100
H 4.171876 1.286096 2.198263
C 6.289046 2.753807 -0.703502
H 5.773162 1.006620 -1.821739
C 4.330002 -2.174672 3.618299
H 5.537170 -0.917535 2.373395
C 2.158774 -2.822401 2.739025
H 1.671464 -2.072801 0.793364
C 6.363294 -3.488867 -2.719755
H 4.399373 -4.274593 -3.246403
H 8.143163 -2.522189 -1.993681
C 6.162577 3.455980 0.509965
H 5.261335 3.444291 2.492667
H 6.880979 3.198129 -1.504486
C 3.114015 -2.869333 3.765014
H 5.061174 -2.231939 4.425108
H 1.214375 -3.360323 2.819550
O 7.118630 -4.327381 -3.439548
O 6.787889 4.639398 0.574841
O 2.952263 -3.549837 4.905164
C 6.479740 -5.331266 -4.205385
C 6.786920 5.340405 1.804414
C 1.751462 -4.275766 5.099031
H 5.815785 -4.886947 -4.962480
H 5.897828 -6.007634 -3.561002
H 7.275830 -5.894459 -4.702546
H 7.385403 6.243400 1.646556
H 7.239945 4.730379 2.600835
H 5.765123 5.624379 2.097773
H 1.627180 -5.044316 4.321593
H 1.835452 -4.754606 6.079635
H 0.880273 -3.602943 5.091830
172
Mode 6 Frame: * Frequency(6) -333.8800
O -2.116561 -0.481877 0.405914
C -2.055712 0.638481 -0.209083
N -3.191618 1.247367 -0.808746
C -4.533721 0.643365 -0.871827
C -2.858159 2.564721 -1.106783
C -3.646533 3.621110 -1.573681
C -3.057652 4.872044 -1.777266
C -1.693830 5.062734 -1.513140
C -0.899694 4.017614 -1.038234
C -1.459573 2.742404 -0.817039
C -0.988167 1.490170 -0.318387
O 0.279600 1.148308 0.236380
C 0.490953 1.089231 1.566116
C -0.259508 2.166611 2.343930
C -1.604503 2.148422 2.337497
C -2.063954 3.507361 2.304861
C -0.921083 4.334314 2.363407
C -1.029723 5.733750 2.367344
C -2.305974 6.264706 2.271401
C -3.454925 5.449188 2.171736
C -3.343198 4.069781 2.184252
H -4.707636 3.484509 -1.775580
H -3.669388 5.700661 -2.137546
H -1.245494 6.046499 -1.670646
H 0.154313 4.194264 -0.818057
H -0.152851 6.375584 2.428283
H -2.423204 7.349892 2.257952
H -4.436974 5.915680 2.080538
H -4.218896 3.423422 2.098986
H 1.586901 1.166612 1.608573
H 0.132272 0.076458 2.002213
N 0.196285 3.504901 2.379810
H -2.208531 1.239066 2.167553
S 1.762252 4.024699 2.751950
O 1.649238 5.202635 3.591192
O 2.465003 2.850774 3.251683
C -5.242857 0.993529 -2.200501
C -4.502866 1.264718 -3.358020
C -6.632908 0.867392 -2.317040
C -5.137462 1.451965 -4.585311
H -3.416727 1.333480 -3.300338
C -7.270497 1.057855 -3.543662
H -7.230368 0.601794 -1.443072
C -6.525952 1.359898 -4.683644
H -4.537901 1.670588 -5.470790
H -8.355814 0.961332 -3.605797
H -7.022842 1.510457 -5.643446
C -5.281076 1.110030 0.394977
C -4.941135 0.520765 1.624172
C -6.181115 2.181330 0.403505
C -5.512925 0.962748 2.815356
H -4.209698 -0.290486 1.632341
C -6.756354 2.626714 1.598578
H -6.453415 2.680343 -0.526427
C -6.432621 2.015090 2.807304
H -5.237859 0.482151 3.756063
H -7.460474 3.460349 1.576026
H -6.884238 2.360129 3.738900
C -4.452981 -0.901201 -0.995730
C -3.495017 -1.485404 -1.839521
C -5.418967 -1.728606 -0.421317
C -3.479696 -2.856547 -2.066632
H -2.733996 -0.855652 -2.307107
C -5.412600 -3.109508 -0.655456
H -6.192137 -1.305466 0.221309
C -4.442628 -3.680874 -1.472056
H -2.700983 -3.289182 -2.700360
H -6.169660 -3.735583 -0.180696
H -4.427681 -4.758958 -1.642115
C 2.456236 4.495920 1.198874
C 2.437135 3.603652 0.126900
C 3.140415 5.708315 1.133396
C 3.133793 3.940553 -1.028651
H 1.868444 2.670674 0.160368
C 3.839854 6.018720 -0.029873
H 3.133845 6.387694 1.987000
C 3.859734 5.136162 -1.117871
H 3.128460 3.252802 -1.877207
H 4.393650 6.958427 -0.088657
C 4.681056 5.456409 -2.334280
H 5.747163 5.484594 -2.059748
H 4.543147 4.704428 -3.121328
H 4.419754 6.445085 -2.738006
H -1.160742 -1.654409 -0.058693
N -0.630470 -2.535215 -0.334661
C 0.104552 -2.470825 -1.470937
C -1.030020 -3.639537 0.420022
N 0.239769 -1.204786 -1.926647
S 0.731214 -3.823365 -2.281376
C -0.239673 -4.765435 0.673294
C -2.290467 -3.533509 1.035655
C 1.218451 -0.746752 -2.894510
H -0.193430 -0.469514 -1.354285
C -0.718258 -5.759956 1.531395
H 0.746796 -4.853371 0.219719
C -2.740662 -4.536173 1.880576
H -2.896811 -2.646655 0.832875
C 2.280014 0.128736 -2.182025
H 1.714591 -1.650462 -3.274745
C 0.549746 -0.038842 -4.098762
C 0.179219 -6.936304 1.803734
C -1.962908 -5.667156 2.143299
C -4.112062 -4.429839 2.489289
N 2.523922 -0.347334 -0.824780
H 1.938198 1.175925 -2.134453
H 3.214903 0.111976 -2.760972
C 1.641431 0.495906 -5.032210
C -0.298358 -1.071691 -4.848033
C -0.356753 1.111320 -3.645417
F -0.343341 -7.780675 2.692369
F 0.436835 -7.634181 0.694856
F 1.367026 -6.539407 2.285297
H -2.316674 -6.448710 2.816067
F -5.007485 -5.162919 1.815880
F -4.127186 -4.872305 3.750419