8
Mode 6 Frame: * (null), Energy   -1000.0000000
C -1.332224 -1.570736 -0.001735
H -1.453283 -2.643548 0.191056
H -2.293949 -1.154596 -0.325204
C -0.814983 -0.839382 1.264872
H -1.517410 -0.056741 1.575926
H -0.676803 -1.545601 2.092458
F -0.436272 -1.428293 -1.048956
F 0.407215 -0.235418 1.017364
8
Mode 6 Frame: * Frequency(6) -388.5100
C -1.346905 -1.544775 -0.010751
H -1.556040 -2.610337 0.168574
H -2.268833 -1.050164 -0.350591
C -0.800337 -0.865384 1.273938
H -1.517898 -0.126275 1.661397
H -0.598723 -1.613573 2.054738
F -0.425260 -1.447690 -1.042145
F 0.396227 -0.216002 1.010528
8
Mode 6 Frame: * Frequency(6) -388.5100
C -1.359994 -1.521628 -0.018789
H -1.647662 -2.580726 0.148529
H -2.246438 -0.957049 -0.373226
C -0.787278 -0.888568 1.282021
H -1.518334 -0.188274 1.737605
H -0.529104 -1.674179 2.021106
F -0.415441 -1.464985 -1.036073
F 0.386430 -0.198690 1.004432
8
Mode 6 Frame: * Frequency(6) -388.5100
C -1.370075 -1.503802 -0.024980
H -1.718219 -2.557922 0.133092
H -2.229192 -0.885341 -0.390658
C -0.777221 -0.906422 1.288246
H -1.518669 -0.236019 1.796293
H -0.475490 -1.720852 1.995206
F -0.407879 -1.478304 -1.031396
F 0.378885 -0.185358 0.999738
8
Mode 6 Frame: * Frequency(6) -388.5100
C -1.376053 -1.493229 -0.028652
H -1.760067 -2.544397 0.123936
H -2.218964 -0.842811 -0.400997
C -0.771256 -0.917012 1.291939
H -1.518868 -0.264337 1.831101
H -0.443692 -1.748533 1.979845
F -0.403395 -1.486204 -1.028622
F 0.374410 -0.177451 0.996954
8
Mode 6 Frame: * Frequency(6) -388.5100
C -1.377283 -1.491056 -0.029406
H -1.768670 -2.541616 0.122054
H -2.216861 -0.834068 -0.403122
C -0.770030 -0.919188 1.292698
H -1.518908 -0.270158 1.838257
H -0.437155 -1.754224 1.976687
F -0.402473 -1.487828 -1.028052
F 0.373490 -0.175825 0.996382
8
Mode 6 Frame: * Frequency(6) -388.5100
C -1.373629 -1.497517 -0.027163
H -1.743096 -2.549882 0.127649
H -2.223112 -0.860059 -0.396804
C -0.773675 -0.912717 1.290441
H -1.518787 -0.252853 1.816985
H -0.456588 -1.737307 1.986075
F -0.405214 -1.483000 -1.029747
F 0.376224 -0.180658 0.998083
8
Mode 6 Frame: * Frequency(6) -388.5100
C -1.365488 -1.511912 -0.022163
H -1.686116 -2.568297 0.140116
H -2.237039 -0.917968 -0.382727
C -0.781796 -0.898299 1.285414
H -1.518516 -0.214295 1.769591
H -0.499884 -1.699616 2.006991
F -0.411320 -1.472244 -1.033524
F 0.382318 -0.191424 1.001874
8
Mode 6 Frame: * Frequency(6) -388.5100
C -1.353743 -1.532682 -0.014950
H -1.603905 -2.594868 0.158102
H -2.257133 -1.001519 -0.362416
C -0.793514 -0.877496 1.278161
H -1.518126 -0.158665 1.701210
H -0.562352 -1.645235 2.037168
F -0.420130 -1.456725 -1.038973
F 0.391109 -0.206958 1.007343
8
Mode 6 Frame: * Frequency(6) -388.5100
C -1.339666 -1.557576 -0.006305
H -1.505372 -2.626713 0.179660
H -2.281217 -1.101658 -0.338073
C -0.807559 -0.852563 1.269468
H -1.517657 -0.091989 1.619252
H -0.637223 -1.580057 2.073337
F -0.430690 -1.438126 -1.045504
F 0.401645 -0.225576 1.013899
8
Mode 6 Frame: * Frequency(6) -388.5100
C -1.324782 -1.583896 0.002835
H -1.401194 -2.660383 0.202452
H -2.306681 -1.207534 -0.312335
C -0.822407 -0.826201 1.260276
H -1.517163 -0.021493 1.532600
H -0.716383 -1.511145 2.111579
F -0.441854 -1.418460 -1.052408
F 0.412785 -0.245260 1.020829
8
Mode 6 Frame: * Frequency(6) -388.5100
C -1.310705 -1.608790 0.011480
H -1.302661 -2.692228 0.224010
H -2.330765 -1.307673 -0.287992
C -0.836452 -0.801268 1.251583
H -1.516694 0.045183 1.450642
H -0.791254 -1.445967 2.147748
F -0.452414 -1.399861 -1.058939
F 0.423321 -0.263878 1.027385
8
Mode 6 Frame: * Frequency(6) -388.5100
C -1.298960 -1.629560 0.018693
H -1.220450 -2.718799 0.241996
H -2.350859 -1.391224 -0.267681
C -0.848170 -0.780465 1.244330
H -1.516304 0.100813 1.382261
H -0.853722 -1.391586 2.177925
F -0.461224 -1.384342 -1.064388
F 0.432112 -0.279412 1.032854
8
Mode 6 Frame: * Frequency(6) -388.5100
C -1.290819 -1.643955 0.023693
H -1.163470 -2.737214 0.254463
H -2.364786 -1.449133 -0.253604
C -0.856291 -0.766047 1.239303
H -1.516033 0.139371 1.334867
H -0.897018 -1.353895 2.198841
F -0.467330 -1.373586 -1.068165
F 0.438206 -0.290178 1.036645
8
Mode 6 Frame: * Frequency(6) -388.5100
C -1.287165 -1.650416 0.025936
H -1.137896 -2.745480 0.260058
H -2.371037 -1.475124 -0.247286
C -0.859936 -0.759576 1.237046
H -1.515912 0.156676 1.313595
H -0.916451 -1.336978 2.208229
F -0.470071 -1.368758 -1.069860
F 0.440940 -0.295011 1.038346
8
Mode 6 Frame: * Frequency(6) -388.5100
C -1.288395 -1.648243 0.025182
H -1.146499 -2.742699 0.258176
H -2.368934 -1.466381 -0.249411
C -0.858710 -0.761752 1.237805
H -1.515952 0.150855 1.320751
H -0.909914 -1.342669 2.205071
F -0.469149 -1.370382 -1.069290
F 0.440020 -0.293385 1.037774
8
Mode 6 Frame: * Frequency(6) -388.5100
C -1.294373 -1.637670 0.021510
H -1.188347 -2.729174 0.249020
H -2.358706 -1.423851 -0.259750
C -0.852745 -0.772342 1.241498
H -1.516151 0.122537 1.355559
H -0.878116 -1.370350 2.189710
F -0.464665 -1.378282 -1.066516
F 0.435545 -0.285478 1.034990
8
Mode 6 Frame: * Frequency(6) -388.5100
C -1.304454 -1.619844 0.015319
H -1.258904 -2.706370 0.233583
H -2.341460 -1.352143 -0.277182
C -0.842688 -0.790196 1.247723
H -1.516486 0.074792 1.414247
H -0.824502 -1.417023 2.163810
F -0.457103 -1.391601 -1.061839
F 0.428000 -0.272146 1.030296
8
Mode 6 Frame: * Frequency(6) -388.5100
C -1.317543 -1.596697 0.007281
H -1.350526 -2.676759 0.213538
H -2.319065 -1.259028 -0.299817
C -0.829629 -0.813380 1.255806
H -1.516922 0.012793 1.490455
H -0.754883 -1.477629 2.130178
F -0.447284 -1.408896 -1.055767
F 0.418203 -0.254834 1.024200
8
Mode 6 Frame: * Frequency(6) -388.5100
C -1.332224 -1.570736 -0.001735
H -1.453283 -2.643548 0.191056
H -2.293949 -1.154596 -0.325204
C -0.814983 -0.839382 1.264872
H -1.517410 -0.056741 1.575926
H -0.676803 -1.545601 2.092458
F -0.436272 -1.428293 -1.048956
F 0.407215 -0.235418 1.017364
