
                                 *****************
                                 * O   R   C   A *
                                 *****************

                                            #,                                       
                                            ###                                      
                                            ####                                     
                                            #####                                    
                                            ######                                   
                                           ########,                                 
                                     ,,################,,,,,                         
                               ,,#################################,,                 
                          ,,##########################################,,             
                       ,#########################################, ''#####,          
                    ,#############################################,,   '####,        
                  ,##################################################,,,,####,       
                ,###########''''           ''''###############################       
              ,#####''   ,,,,##########,,,,          '''####'''          '####       
            ,##' ,,,,###########################,,,                        '##       
           ' ,,###''''                  '''############,,,                           
         ,,##''                                '''############,,,,        ,,,,,,###''
      ,#''                                            '''#######################'''  
     '                                                          ''''####''''         
             ,#######,   #######,   ,#######,      ##                                
            ,#'     '#,  ##    ##  ,#'     '#,    #''#        ,####,   ,####,        
            ##       ##  ##   ,#'  ##            #'  '#       #'       #'  '#        
            ##       ##  #######   ##           ,######,      #####,   #    #        
            '#,     ,#'  ##    ##  '#,     ,#' ,#      #,     #,   #   #,  ,#        
             '#######'   ##     ##  '#######'  #'      '#     '####' # '####'        



                #########################################################
                #                        -***-                          #
                #          Department of theory and spectroscopy        #
                #                                                       #
                #                      Frank Neese                      #
                #                                                       #
                #     Directorship, Architecture, Infrastructure        #
                #                    SHARK, DRIVERS                     #
                #        Core code/Algorithms in most modules           #
                #                                                       #
                #        Max Planck Institute fuer Kohlenforschung      #
                #                Kaiser Wilhelm Platz 1                 #
                #                 D-45470 Muelheim/Ruhr                 #
                #                      Germany                          #
                #                                                       #
                #                  All rights reserved                  #
                #                        -***-                          #
                #########################################################


                         Program Version 6.0.1  -  RELEASE   -


 With contributions from (in alphabetic order):
[Max-Planck-Institut fuer Kohlenforschung]                               
  Daniel Aravena         : Magnetic Suceptibility                        
  Michael Atanasov       : Ab Initio Ligand Field Theory (pilot matlab implementation)
  Alexander A. Auer      : GIAO ZORA, VPT2 properties, NMR spectrum      
  Ute Becker             : All parallelization in ORCA, NUMFREQ, NUMCALC 
  Giovanni Bistoni       : ED, misc. LED, open-shell LED, HFLD           
  Martin Brehm           : Molecular dynamics                            
  Dmytro Bykov           : pre 5.0 version of the SCF Hessian            
  Marcos Casanova-Páez   : Triplet and SCS-CIS(D). UHF-(DLPNO)-IP/EA/STEOM-CCSD. UHF-CVS-IP/STEOM-CCSD   
  Vijay G. Chilkuri      : MRCI spin determinant printing, contributions to CSF-ICE 
  Pauline Colinet        : FMM embedding                                 
  Dipayan Datta          : RHF DLPNO-CCSD density                        
  Achintya Kumar Dutta   : EOM-CC, STEOM-CC                              
  Nicolas Foglia         : Exact transition moments, OPA infrastructure, MCD improvements    
  Dmitry Ganyushin       : Spin-Orbit,Spin-Spin,Magnetic field MRCI      
  Miquel Garcia-Rates    : C-PCM and meta-GGA Hessian, CCSD/C-PCM, Gaussian charge scheme 
  Tiago L. C. Gouveia    : GS-ROHF, GS-ROCIS                             
  Yang Guo               : DLPNO-NEVPT2, F12-NEVPT2, CIM, IAO-localization        
  Andreas Hansen         : Spin unrestricted coupled pair/coupled cluster methods 
  Ingolf Harden          : AUTO-CI MPn and infrastructure                
  Benjamin Helmich-Paris : MC-RPA, TRAH-(SCF,CASSCF), AVAS, COSX integrals, SCF dyn. polar. 
  Lee Huntington         : MR-EOM, pCC                                   
  Robert Izsak           : Overlap fitted RIJCOSX, COSX-SCS-MP3, EOM     
  Riya Kayal             : Wick's Theorem for AUTO-CI, AUTO-CI UHF-CCSDT 
  Emily Kempfer          : AUTO-CI, RHF CISDT and CCSDT                  
  Christian Kollmar      : KDIIS, OOCD, Brueckner-CCSD(T), CCSD density, CASPT2, CASPT2-K, improved NEVPT2 
  Axel Koslowski         : Symmetry handling                             
  Simone Kossmann        : meta-GGA functionals, TD-DFT gradient, OOMP2, (MP2 Hessian; deprecated post 5.0) 
  Lucas Lang             : DCDCAS                                        
  Marvin Lechner         : AUTO-CI (C++ implementation), FIC-MRCC        
  Spencer Leger          : CASSCF response                               
  Dagmar Lenk            : GEPOL surface, SMD, ORCA-2-JSON               
  Dimitrios Liakos       : Extrapolation schemes; Compound Job, initial MDCI parallelization 
  Dimitrios Manganas     : Further ROCIS development; embedding schemes. LFT, Crystal Embedding 
  Dimitrios Pantazis     : SARC Basis sets                               
  Anastasios Papadopoulos: AUTO-CI, single reference methods and gradients 
  Taras Petrenko         : pre 6.0 DFT Hessian and TD-DFT gradient, (ASA, deprecated), ECA, 1-Electron XAS/XES, NRVS 
  Peter Pinski           : DLPNO-MP2, DLPNO-MP2 Gradient                 
  Christoph Reimann      : Effective Core Potentials                     
  Marius Retegan         : Local ZFS, SOC                                
  Christoph Riplinger    : Optimizer, TS searches, QM/MM, DLPNO-CCSD(T), (RO)-DLPNO pert. Triples 
  Michael Roemelt        : Original ROCIS implementation                 
  Masaaki Saitow         : Open-shell DLPNO-CCSD energy and density      
  Barbara Sandhoefer     : DKH picture change effects                    
  Kantharuban Sivalingam : CASSCF convergence/infrastructure, NEVPT2 and variants, FIC-MRCI 
  Bernardo de Souza      : ESD, SOC TD-DFT                               
  Georgi L. Stoychev     : AutoAux, RI-MP2 NMR, DLPNO-MP2 response, X2C  
  Van Anh Tran           : RI-MP2 g-tensors                              
  Willem Van den Heuvel  : Paramagnetic NMR                              
  Zikuan Wang            : NOTCH, Electric field optimization            
  Frank Wennmohs         : Technical directorship and infrastructure     
  Hang Xu                : AUTO-CI-Response properties                   
                                                                         
[FACCTs GmbH]                                                            
  Markus Bursch, Miquel Garcia-Rates, Christoph Riplinger, Bernardo de Souza, Georgi L. Stoychev 
                                                                 
  APM, Basis sets (HGBS, AHGBS, def-TZVP (Ac-Lr), def2-XVPD (La-Lu)), CI-OPT, improved COSX, DLPNO-Multilevel,           
  DOCKER, DRACO, updates on ESD, GOAT, IRC, LR-CPCM, MBIS, meta-GGA TD-DFT gradient, ML-optimized integration grids, 
  MM, NACMEs, nearIR, NEB, NEB-TS, NL-DFT gradient (VV10), 2- and 3-layer-ONIOM, interface openCOSMO-RS, QMMM,   
  Crystal-QMMM, SF, symmetry and pop. for TD-DFT, r2SCAN hybrids, SOLVATOR                                   
                                                                         
[Other institutions]                                                     
  V. Asgeirsson          : NEB                                           
  Christoph Bannwarth    : sTDA-DFT, sTD-DFT, PBEh-3c, B97-3c, D3        
  Sebastian Ehlert       : rSCAN, r2SCAN, r2SCAN-3c, D4, dhf basis sets  
  Marvin Friede          : D4 for Fr, Ra, Ac-Lr                          
  Lars Goerigk           : TD-DFT with DH, B97 family of functionals     
  Stefan Grimme          : VdW corrections, initial TS optimization, DFT functionals, gCP, sTDA/sTD-DF 
  Waldemar Hujo          : DFT-NL                                        
  H. Jonsson             : NEB                                           
  Holger Kruse           : gCP                                           
  Marcel Mueller         : wB97X-3c, vDZP basis set                      
  Hagen Neugebauer       : wr2SCAN                                       
  Tobias Risthaus        : range-separated hybrid DFT                    
  Lukas Wittmann         : regularized MP2, r2SCAN double-hybrids, wr2SCAN        
                                                                         
We gratefully acknowledge several colleagues who have allowed us to      
interface, adapt or use parts of their codes:                            
  Ed Valeev, F. Pavosevic, A. Kumar             : LibInt (2-el integral package), F12 methods 
  Garnet Chan, S. Sharma, J. Yang, R. Olivares  : DMRG                   
  Ulf Ekstrom                                   : XCFun DFT Library      
  Mihaly Kallay                                 : mrcc  (arbitrary order and MRCC methods)
  Frank Weinhold                                : gennbo (NPA and NBO analysis)           
  Simon Mueller                                 : openCOSMO-RS                            
  Christopher J. Cramer and Donald G. Truhlar   : smd solvation model                     
  S Lehtola, MJT Oliveira, MAL Marques          : LibXC Library                           
  Liviu Ungur et al                             : ANISO software                          


 Your calculation uses the libint2 library for the computation of 2-el integrals
 For citations please refer to: http://libint.valeyev.net

 Your ORCA version has been built with support for libXC version: 6.2.2
 For citations please refer to: https://libxc.gitlab.io

 This ORCA versions uses:
   CBLAS   interface :  Fast vector & matrix operations
   LAPACKE interface :  Fast linear algebra routines
   SCALAPACK package :  Parallel linear algebra routines
   Shared memory     :  Shared parallel matrices
   BLAS/LAPACK       :  OpenBLAS 0.3.27  USE64BITINT DYNAMIC_ARCH NO_AFFINITY Cooperlake SINGLE_THREADED
        Core in use  :  Cooperlake
   Copyright (c) 2011-2014, The OpenBLAS Project


NOTE: MaxCore=500 MB was set to SCF,MP2,MDCI,CIPSI,MRCI and CIS
      => If you want to overwrite this, your respective input block should be placed after the MaxCore statement


***************************************
The coordinates will be read from file: dihedral_EtF2.xyz
***************************************


Your calculation utilizes the geometrical counterpoise correction gCP
Please cite in your paper:
H.Kruse, S. Grimme J.Chem.Phys., 136, (2012), 154101 
   

Your calculation utilizes the atom-pairwise dispersion correction
based on EEQ partial charges (D4)


================================================================================

----- Orbital basis set information -----
Your calculation utilizes the basis: def2-mTZVPP
   Stefan Grimme, Andreas Hansen, Sebastian Ehlert, and Jan-Michael Mewes 
   J. Chem. Phys. 154, 064103 (2021). DOI: 10.1063/5.0040021

----- AuxJ basis set information -----
Your calculation utilizes the basis: def2-mTZVPP/J
   Stefan Grimme, Andreas Hansen, Sebastian Ehlert, and Jan-Michael Mewes 
   J. Chem. Phys. 154, 000000 (2021). DOI: 10.1063/5.0040021

================================================================================
                                        WARNINGS
                       Please study these warnings very carefully!
================================================================================



WARNING: SCAN, rSCAN, or r2SCAN functional requested.
  ===> : libXC variant has now been activated.



WARNING: Geometry Optimization
  ===> : Switching off AutoStart
         For restart on a previous wavefunction, please use MOREAD

================================================================================
                                       INPUT FILE
================================================================================
NAME = /scratch/hbxr153/tmp/965692/dihedral_EtF2.inp
|  1> ! r2scan-3c optTS freq xyzfile
|  2> %pal nprocs 16 end
|  3> %maxcore 500
|  4> %geom 
|  5>     Calc_Hess true
|  6> end
|  7> * xyzfile 0 1 dihedral_EtF2.xyz
|  8>             
|  9> 
| 10>                          ****END OF INPUT****
================================================================================

                       *****************************
                       * Geometry Optimization Run *
                       *****************************

Geometry optimization settings:
Update method            Update   .... Bofill
Choice of coordinates    CoordSys .... (2022) Redundant Internals
Initial Hessian          InHess   .... Almloef's Model
Max. no of cycles        MaxIter  .... 50

Convergence Tolerances:
Energy Change            TolE     ....  5.0000e-06 Eh
Max. Gradient            TolMAXG  ....  3.0000e-04 Eh/bohr
RMS Gradient             TolRMSG  ....  1.0000e-04 Eh/bohr
Max. Displacement        TolMAXD  ....  4.0000e-03 bohr
RMS Displacement         TolRMSD  ....  2.0000e-03 bohr
Strict Convergence                .... False

------------------------------------------------------------------------------
                        ORCA OPTIMIZATION COORDINATE SETUP
------------------------------------------------------------------------------

The optimization will be done in redundant internal coordinates (2022)
Making redundant internal coordinates   ...  (2022 redundants) done
Following TS mode number                ...     0
Evaluating the initial hessian          ...  (Is done on the fly) done
Evaluating the coordinates              ...  done
Calculating the B-matrix                .... done
Calculating the G-matrix                .... done
Diagonalizing the G-matrix              .... done
The first mode is                       ....    7
The number of degrees of freedom        ....   18

    -----------------------------------------------------------------
                    Redundant Internal Coordinates


    -----------------------------------------------------------------
         Definition                    Initial Value    d2E/dq (diagonal element)
    -----------------------------------------------------------------
      1. B(H   1,C   0)                  1.0700         0.000000   
      2. B(H   2,C   0)                  1.0700         0.000000   
      3. B(C   3,C   0)                  1.5400         0.000000   
      4. B(H   4,C   3)                  1.0700         0.000000   
      5. B(H   5,C   3)                  1.0700         0.000000   
      6. B(F   6,C   0)                  1.3500         0.000000   
      7. B(F   7,C   3)                  1.3500         0.000000   
      8. A(H   1,C   0,H   2)          109.4712         0.000000   
      9. A(H   2,C   0,F   6)          109.4712         0.000000   
     10. A(H   1,C   0,C   3)          109.4712         0.000000   
     11. A(H   2,C   0,C   3)          109.4712         0.000000   
     12. A(C   3,C   0,F   6)          109.4713         0.000000   
     13. A(H   1,C   0,F   6)          109.4712         0.000000   
     14. A(H   5,C   3,F   7)          109.4712         0.000000   
     15. A(H   4,C   3,H   5)          109.4713         0.000000   
     16. A(H   4,C   3,F   7)          109.4712         0.000000   
     17. A(C   0,C   3,F   7)          109.4712         0.000000   
     18. A(C   0,C   3,H   5)          109.4712         0.000000   
     19. A(C   0,C   3,H   4)          109.4712         0.000000   
     20. D(H   4,C   3,C   0,H   2)     -0.0000         0.000000   
     21. D(H   4,C   3,C   0,F   6)    120.0000         0.000000   
     22. D(H   5,C   3,C   0,H   1)     -0.0000         0.000000   
     23. D(H   5,C   3,C   0,H   2)    120.0000         0.000000   
     24. D(H   5,C   3,C   0,F   6)   -120.0000         0.000000   
     25. D(H   4,C   3,C   0,H   1)   -120.0000         0.000000   
    -----------------------------------------------------------------

Number of atoms                         .... 8
Number of degrees of freedom            .... 25


         *************************************************************
         *                GEOMETRY OPTIMIZATION CYCLE   1            *
         *************************************************************
---------------------------------
CARTESIAN COORDINATES (ANGSTROEM)
---------------------------------
  C     -1.325301   -1.566265    0.000000
  H     -1.445125   -2.607886    0.213468
  H     -2.267410   -1.151302   -0.291782
  C     -0.811959   -0.840309    1.257405
  H     -1.516286   -0.089080    1.548057
  H     -0.694001   -1.545664    2.053307
  F     -0.435488   -1.412013   -1.003463
  F      0.377860   -0.261796    0.988789

----------------------------
CARTESIAN COORDINATES (A.U.)
----------------------------
  NO LB      ZA    FRAG     MASS         X           Y           Z
   0 C     6.0000    0    12.011   -2.504456   -2.959812    0.000000
   1 H     1.0000    0     1.008   -2.730890   -4.928190    0.403396
   2 H     1.0000    0     1.008   -4.284784   -2.175645   -0.551387
   3 C     6.0000    0    12.011   -1.534380   -1.587953    2.376151
   4 H     1.0000    0     1.008   -2.865365   -0.168337    2.925404
   5 H     1.0000    0     1.008   -1.311472   -2.920882    3.880187
   6 F     9.0000    0    18.998   -0.822953   -2.668318   -1.896271
   7 F     9.0000    0    18.998    0.714052   -0.494723    1.868541

--------------------------------
INTERNAL COORDINATES (ANGSTROEM)
--------------------------------
 C      0   0   0     0.000000000000     0.00000000     0.00000000
 H      1   0   0     1.069999999095     0.00000000     0.00000000
 H      1   2   0     1.070000007465   109.47123157     0.00000000
 C      1   2   3     1.540000004509   109.47120288   119.99999282
 H      4   1   2     1.070000002681   109.47120246   239.99997821
 H      4   1   2     1.070000002385   109.47120228     0.00000000
 F      1   2   3     1.349999999875   109.47120267   240.00000774
 F      4   1   2     1.349999996087   109.47123110   119.99998503

---------------------------
INTERNAL COORDINATES (A.U.)
---------------------------
 C      0   0   0     0.000000000000     0.00000000     0.00000000
 H      1   0   0     2.022006961585     0.00000000     0.00000000
 H      1   2   0     2.022006977403   109.47123157     0.00000000
 C      1   2   3     2.910178254759   109.47120288   119.99999282
 H      4   1   2     2.022006968362   109.47120246   239.99997821
 H      4   1   2     2.022006967803   109.47120228     0.00000000
 F      1   2   3     2.551130280557   109.47120267   240.00000774
 F      4   1   2     2.551130273399   109.47123110   119.99998503

---------------------
BASIS SET INFORMATION
---------------------
There are 3 groups of distinct atoms

 Group   1 Type C   : 11s6p1d contracted to 5s3p1d pattern {62111/411/1}
 Group   2 Type H   : 4s1p contracted to 2s1p pattern {31/1}
 Group   3 Type F   : 11s6p2d contracted to 5s3p2d pattern {62111/411/11}

Atom   0C    basis set group =>   1
Atom   1H    basis set group =>   2
Atom   2H    basis set group =>   2
Atom   3C    basis set group =>   1
Atom   4H    basis set group =>   2
Atom   5H    basis set group =>   2
Atom   6F    basis set group =>   3
Atom   7F    basis set group =>   3
---------------------------------
AUXILIARY/J BASIS SET INFORMATION
---------------------------------
There are 3 groups of distinct atoms

 Group   1 Type C   : 8s3p3d contracted to 6s3p3d pattern {311111/111/111}
 Group   2 Type H   : 5s2p1d contracted to 3s1p1d pattern {311/2/1}
 Group   3 Type F   : 8s3p4d contracted to 6s3p4d pattern {311111/111/1111}

Atom   0C    basis set group =>   1
Atom   1H    basis set group =>   2
Atom   2H    basis set group =>   2
Atom   3C    basis set group =>   1
Atom   4H    basis set group =>   2
Atom   5H    basis set group =>   2
Atom   6F    basis set group =>   3
Atom   7F    basis set group =>   3


           ************************************************************
           *        Program running with 16 parallel MPI-processes    *
           *              working on a common directory               *
           ************************************************************
------------------------------------------------------------------------------
                             ORCA STARTUP CALCULATIONS
                           -- RI-GTO INTEGRALS CHOSEN --
------------------------------------------------------------------------------
------------------------------------------------------------------------------
                   ___                                                        
                  /   \      - P O W E R E D   B Y -                         
                 /     \                                                     
                 |  |  |   _    _      __       _____    __    __             
                 |  |  |  | |  | |    /  \     |  _  \  |  |  /  |          
                  \  \/   | |  | |   /    \    | | | |  |  | /  /          
                 / \  \   | |__| |  /  /\  \   | |_| |  |  |/  /          
                |  |  |   |  __  | /  /__\  \  |    /   |      \           
                |  |  |   | |  | | |   __   |  |    \   |  |\   \          
                \     /   | |  | | |  |  |  |  | |\  \  |  | \   \       
                 \___/    |_|  |_| |__|  |__|  |_| \__\ |__|  \__/        
                                                                              
                      - O R C A' S   B I G   F R I E N D -                    
                                      &                                       
                       - I N T E G R A L  F E E D E R -                       
                                                                              
 v1 FN, 2020, v2 2021, v3 2022-2024                                           
------------------------------------------------------------------------------


----------------------
SHARK INTEGRAL PACKAGE
----------------------

Number of atoms                             ...      8
Number of basis functions                   ...    106
Number of shells                            ...     50
Maximum angular momentum                    ...      2
Integral batch strategy                     ... SHARK/LIBINT Hybrid
RI-J (if used) integral strategy            ... SPLIT-RIJ (Revised 2003 algorithm where possible)
Printlevel                                  ...      1
Contraction scheme used                     ... SEGMENTED contraction
Prescreening option                         ... SCHWARTZ
   Thresh                                   ... 2.500e-11
   Tcut                                     ... 2.500e-12
   Tpresel                                  ... 2.500e-12 
Coulomb Range Separation                    ... NOT USED
Exchange Range Separation                   ... NOT USED
Multipole approximations                    ... NOT USED
Finite Nucleus Model                        ... NOT USED
CABS basis                                  ... NOT available
Auxiliary Coulomb fitting basis             ... AVAILABLE
   # of basis functions in Aux-J            ...    174
   # of shells in Aux-J                     ...     70
   Maximum angular momentum in Aux-J        ...      2
Auxiliary J/K fitting basis                 ... NOT available
Auxiliary Correlation fitting basis         ... NOT available
Auxiliary 'external' fitting basis          ... NOT available

Checking pre-screening integrals            ... done (  0.0 sec) Dimension = 50
Check shell pair data                       ... done (  0.0 sec)
Shell pair information
Shell pair cut-off parameter TPreSel        ...   2.5e-12
Total number of shell pairs                 ...      1275
Shell pairs after pre-screening             ...      1238
Total number of primitive shell pairs       ...      4565
Primitive shell pairs kept                  ...      3514
          la=0 lb=0:    383 shell pairs
          la=1 lb=0:    434 shell pairs
          la=1 lb=1:    136 shell pairs
          la=2 lb=0:    168 shell pairs
          la=2 lb=1:     96 shell pairs
          la=2 lb=2:     21 shell pairs

Calculating one electron integrals          ... done (  0.0 sec)
done (  0.1 sec)
Calculating Nuclear repulsion               ... done (  0.0 sec) ENN=    131.506403401590 Eh

Diagonalization of the overlap matrix:
Smallest eigenvalue                        ... 6.410e-04
Time for diagonalization                   ...    0.001 sec
Threshold for overlap eigenvalues          ... 1.000e-07
Number of eigenvalues below threshold      ... 0
Time for construction of square roots      ...    0.003 sec
Total time needed                          ...    0.016 sec

-------------------
DFT GRID GENERATION
-------------------

General Integration Accuracy     IntAcc      ... 4.388
Radial Grid Type                 RadialGrid  ... OptM3 with GC (2021)
Angular Grid (max. ang.)         AngularGrid ... 4 (Lebedev-302)
Angular grid pruning method      GridPruning ... 4 (adaptive)
Weight generation scheme         WeightScheme... mBecke (2022)
Basis function cutoff            BFCut       ... 1.0000e-11
Integration weight cutoff        WCut        ... 1.0000e-14
Partially contracted basis set               ... off
Rotationally invariant grid construction     ... off
Angular grids for H and He will be reduced by one unit

Total number of grid points                  ...    37409
Total number of batches                      ...      588
Average number of points per batch           ...       63
Average number of grid points per atom       ...     4676
Initializing property integral containers    ... done (  0.0 sec)

SHARK setup successfully completed in   0.3 seconds

Maximum memory used throughout the entire STARTUP-calculation: 10.2 MB


           ************************************************************
           *        Program running with 16 parallel MPI-processes    *
           *              working on a common directory               *
           ************************************************************
-------------------------------------------------------------------------------
                                 ORCA GUESS
                   Start orbitals & Density for SCF / CASSCF
-------------------------------------------------------------------------------

------------
SCF SETTINGS
------------
Hamiltonian:
 Density Functional     Method          .... DFT(GTOs)
  Functional kind                       .... Exchange
  Functional name                       .... Re-regularized SCAN exchange by Furness et al
  Functional family                     .... MGGA
  Functional refs                              
    [ 0] J. W. Furness, A. D. Kaplan, J. Ning, J. P. Perdew, and J. Sun.,  J. Phys. Chem. Lett. 11, 8208-8215 (2020), doi: 10.1021/acs.jpclett.0c02405
    [ 1] J. W. Furness, A. D. Kaplan, J. Ning, J. P. Perdew, and J. Sun.,  J. Phys. Chem. Lett. 11, 9248-9248 (2020), doi: 10.1021/acs.jpclett.0c03077
  Functional external parameters        .... 6
    Parameter  0 _c1        =  6.670000e-01 : c1 parameter        
    Parameter  1 _c2        =  8.000000e-01 : c2 parameter        
    Parameter  2 _d         =  1.240000e+00 : d parameter         
    Parameter  3 _k1        =  6.500000e-02 : k1 parameter        
    Parameter  4 _eta       =  1.000000e-03 : eta parameter       
    Parameter  5 _dp2       =  3.610000e-01 : dp2 parameter       
  Functional kind                       .... Correlation
  Functional name                       .... Re-regularized SCAN correlation by Furness et al
  Functional family                     .... MGGA
  Functional refs                              
    [ 0] J. W. Furness, A. D. Kaplan, J. Ning, J. P. Perdew, and J. Sun.,  J. Phys. Chem. Lett. 11, 8208-8215 (2020), doi: 10.1021/acs.jpclett.0c02405
    [ 1] J. W. Furness, A. D. Kaplan, J. Ning, J. P. Perdew, and J. Sun.,  J. Phys. Chem. Lett. 11, 9248-9248 (2020), doi: 10.1021/acs.jpclett.0c03077
  Functional external parameters        .... 1
    Parameter  0 _eta       =  1.000000e-03 : Regularization parameter
 Gradients option       PostSCFGGA      .... off
 RI-approximation to the Coulomb term is turned on
   Number of AuxJ basis functions       .... 174


General Settings:
 Integral files         IntName         .... /scratch/hbxr153/tmp/965692/dihedral_EtF2
 Hartree-Fock type      HFTyp           .... RHF
 Total Charge           Charge          ....    0
 Multiplicity           Mult            ....    1
 Number of Electrons    NEL             ....   34
 Basis Dimension        Dim             ....  106
 Nuclear Repulsion      ENuc            ....    131.5064034016 Eh

Convergence Acceleration:
 AO-DIIS                CNVDIIS         .... on
   Start iteration      DIISMaxIt       ....    12
   Startup error        DIISStart       ....  0.200000
   # of expansion vecs  DIISMaxEq       ....     5
   Bias factor          DIISBfac        ....   1.050
   Max. coefficient     DIISMaxC        ....  10.000
 MO-DIIS                CNVKDIIS        .... off
 Trust-Rad. Augm. Hess. CNVTRAH         .... auto
   Auto Start mean grad. ratio tolernc. ....  1.125000
   Auto Start start iteration           ....    50
   Auto Start num. interpolation iter.  ....    10
   Max. Number of Micro iterations      ....    24
   Max. Number of Macro iterations      .... Maxiter - #DIIS iter
   Number of Davidson start vectors     ....     2
   Converg. threshold    (grad. norm)   ....   1.000e-05
   Grad. Scal. Fac. for Micro threshold ....   0.100
   Minimum threshold for Micro iter.    ....   1.000e-02
   NR start threshold (gradient norm)   ....   1.000e-04
   Initial trust radius                 ....   0.400
   Minimum AH scaling param. (alpha)    ....   1.000
   Maximum AH scaling param. (alpha)    .... 1000.000
   Quad. conv. algorithm                .... NR
   White noise on init. David. guess    .... on
   Maximum white noise                  ....   0.010
   Pseudo random numbers                .... off
   Inactive MOs                         .... canonical
   Orbital update algorithm             .... Taylor
   Preconditioner                       .... Diag
   Full preconditioner red. dimension   ....   250
   COSX micro iterations for RIJONX calc.... off
 SOSCF                  CNVSOSCF        .... on
   Start iteration      SOSCFMaxIt      ....   150
   Startup grad/error   SOSCFStart      ....  0.003300
   Hessian update       SOSCFHessUp     .... L-BFGS
 Level Shifting         CNVShift        .... on
   Level shift para.    LevelShift      ....    0.2500
   Turn off err/grad.   ShiftErr        ....    0.0010
 Zerner damping         CNVZerner       .... off
 Static damping         CNVDamp         .... on
   Fraction old density DampFac         ....    0.7000
   Max. Damping (<1)    DampMax         ....    0.9800
   Min. Damping (>=0)   DampMin         ....    0.0000
   Turn off err/grad.   DampErr         ....    0.1000

SCF Procedure:
 Maximum # iterations   MaxIter         ....   125
 SCF integral mode      SCFMode         .... Direct
   Integral package                     .... SHARK and LIBINT hybrid scheme
 Reset frequency        DirectResetFreq ....    20
 Integral Threshold     Thresh          ....  2.500e-11 Eh
 Primitive CutOff       TCut            ....  2.500e-12 Eh

Convergence Tolerance:
 Convergence Check Mode ConvCheckMode   .... Total+1el-Energy
 Convergence forced     ConvForced      .... 0
 Energy Change          TolE            ....  1.000e-08 Eh
 1-El. energy change                    ....  1.000e-05 Eh
 Orbital Gradient       TolG            ....  1.000e-05
 Orbital Rotation angle TolX            ....  1.000e-05
 DIIS Error             TolErr          ....  5.000e-07

------------------------------
INITIAL GUESS: MODEL POTENTIAL
------------------------------
Loading Hartree-Fock densities                     ... done
Calculating cut-offs                               ... done
Initializing the effective Hamiltonian             ... done
Setting up the integral package (SHARK)            ... done
done (   0.0 sec)
Making the grid                                    ... done (   0.0 sec)
Mapping shells                                     ... done
Starting the XC term evaluation                    ... done (   0.0 sec)
  promolecular density results
     # of electrons  =     33.998323849
     EX              =    -31.411924018
     EC              =     -1.145217554
     EX+EC           =    -32.557141571
Transforming the Hamiltonian                       ... done (   0.0 sec)
done (   0.0 sec)
Back transforming the eigenvectors                 ... done (   0.0 sec)
done
                      ------------------
                      INITIAL GUESS DONE (   0.2 sec)
                      ------------------
             **** ENERGY FILE WAS UPDATED (/scratch/hbxr153/tmp/965692/dihedral_EtF2.en.tmp) ****
Finished Guess after   0.3 sec
Maximum memory used throughout the entire GUESS-calculation: 5.6 MB


           ************************************************************
           *        Program running with 16 parallel MPI-processes    *
           *              working on a common directory               *
           ************************************************************

-------------------------------------------------------------------------------------------
                                      ORCA LEAN-SCF
                              memory conserving SCF solver
-------------------------------------------------------------------------------------------

----------------------------------------D-I-I-S--------------------------------------------
Iteration    Energy (Eh)           Delta-E    RMSDP     MaxDP     DIISErr   Damp  Time(sec)
-------------------------------------------------------------------------------------------
               ***  Starting incremental Fock matrix formation  ***
    1    -278.2126109241797849     0.00e+00  1.58e-03  1.94e-02  1.17e-01  0.700   0.3
    2    -278.2318904896310414    -1.93e-02  1.13e-03  1.59e-02  5.07e-02  0.700   0.4
                               ***Turning on AO-DIIS***
    3    -278.2405179707196794    -8.63e-03  4.81e-04  6.84e-03  2.39e-02  0.700   0.5
    4    -278.2457182130849560    -5.20e-03  9.23e-04  1.01e-02  1.45e-02  0.000   0.4
                              *** Initializing SOSCF ***
---------------------------------------S-O-S-C-F--------------------------------------
Iteration    Energy (Eh)           Delta-E    RMSDP     MaxDP     MaxGrad    Time(sec)
--------------------------------------------------------------------------------------
    5    -278.2570451126168791    -1.13e-02  8.68e-05  9.44e-04  2.50e-03     0.4
               *** Restarting incremental Fock matrix formation ***
    6    -278.2570740025322493    -2.89e-05  4.54e-05  4.49e-04  2.40e-04     0.2
    7    -278.2570737993303283     2.03e-07  1.73e-05  2.37e-04  3.48e-04     0.3
    8    -278.2570753048609049    -1.51e-06  1.05e-05  1.21e-04  6.27e-05     0.3
    9    -278.2570752706023995     3.43e-08  5.60e-06  6.26e-05  7.48e-05     0.3
   10    -278.2570753587104946    -8.81e-08  5.66e-07  7.89e-06  3.73e-06     0.3
   11    -278.2570753576478637     1.06e-09  1.86e-07  2.67e-06  1.57e-06     0.3
                 **** Energy Check signals convergence ****

               *****************************************************
               *                     SUCCESS                       *
               *           SCF CONVERGED AFTER  11 CYCLES          *
               *****************************************************

             **** ENERGY FILE WAS UPDATED (/scratch/hbxr153/tmp/965692/dihedral_EtF2.en.tmp) ****

----------------
TOTAL SCF ENERGY
----------------

Total Energy       :       -278.25707535764786 Eh           -7571.75996 eV

Components:
Nuclear Repulsion  :        131.50640340158998 Eh            3578.47116 eV
Electronic Energy  :       -409.76347875923784 Eh          -11150.23112 eV
One Electron Energy:       -645.06340574899264 Eh          -17553.06765 eV
Two Electron Energy:        235.29992698975482 Eh            6402.83653 eV

Virial components:
Potential Energy   :       -555.81130849399528 Eh          -15124.39461 eV
Kinetic Energy     :        277.55423313634742 Eh            7552.63465 eV
Virial Ratio       :          2.00253226986798

DFT components:
N(Alpha)           :       17.000002021581 electrons
N(Beta)            :       17.000002021581 electrons
N(Total)           :       34.000004043163 electrons
E(X)               :      -32.121382801630 Eh       
E(C)               :       -1.119110400274 Eh       
E(XC)              :      -33.240493201904 Eh       

---------------
SCF CONVERGENCE
---------------

  Last Energy change         ...   -1.0626e-09  Tolerance :   1.0000e-08
  Last MAX-Density change    ...    2.6726e-06  Tolerance :   1.0000e-07
  Last RMS-Density change    ...    1.8588e-07  Tolerance :   5.0000e-09
  Last DIIS Error            ...    2.5019e-03  Tolerance :   5.0000e-07
  Last Orbital Gradient      ...    1.5722e-06  Tolerance :   1.0000e-05
  Last Orbital Rotation      ...    1.8488e-06  Tolerance :   1.0000e-05


----------------
ORBITAL ENERGIES
----------------

  NO   OCC          E(Eh)            E(eV) 
   0   2.0000     -24.475613      -666.0153 
   1   2.0000     -24.475599      -666.0149 
   2   2.0000     -10.107911      -275.0502 
   3   2.0000     -10.107800      -275.0472 
   4   2.0000      -1.179660       -32.1002 
   5   2.0000      -1.160353       -31.5748 
   6   2.0000      -0.734420       -19.9846 
   7   2.0000      -0.610040       -16.6000 
   8   2.0000      -0.496539       -13.5115 
   9   2.0000      -0.495273       -13.4771 
  10   2.0000      -0.469807       -12.7841 
  11   2.0000      -0.446099       -12.1390 
  12   2.0000      -0.430068       -11.7028 
  13   2.0000      -0.348263        -9.4767 
  14   2.0000      -0.332191        -9.0394 
  15   2.0000      -0.295987        -8.0542 
  16   2.0000      -0.290539        -7.9060 
  17   0.0000       0.023687         0.6446 
  18   0.0000       0.100354         2.7308 
  19   0.0000       0.128641         3.5005 
  20   0.0000       0.136381         3.7111 
  21   0.0000       0.162705         4.4274 
  22   0.0000       0.181898         4.9497 
  23   0.0000       0.210950         5.7402 
  24   0.0000       0.213429         5.8077 
  25   0.0000       0.214084         5.8255 
  26   0.0000       0.270065         7.3488 
  27   0.0000       0.326322         8.8797 
*Only the first 10 virtual orbitals were printed.

                    ********************************
                    * MULLIKEN POPULATION ANALYSIS *
                    ********************************

-----------------------
MULLIKEN ATOMIC CHARGES
-----------------------
   0 C :    0.011435
   1 H :    0.124536
   2 H :    0.124531
   3 C :    0.011430
   4 H :    0.124529
   5 H :    0.124536
   6 F :   -0.260508
   7 F :   -0.260489
Sum of atomic charges:    0.0000000

--------------------------------
MULLIKEN REDUCED ORBITAL CHARGES
--------------------------------
  0 C s       :     3.209144  s :     3.209144
      pz      :     0.768287  p :     2.712496
      px      :     0.882204
      py      :     1.062004
      dz2     :     0.016795  d :     0.066926
      dxz     :     0.016271
      dyz     :     0.012494
      dx2y2   :     0.013104
      dxy     :     0.008261

  1 H s       :     0.857293  s :     0.857293
      pz      :     0.003175  p :     0.018170
      px      :     0.003208
      py      :     0.011787

  2 H s       :     0.857299  s :     0.857299
      pz      :     0.003208  p :     0.018170
      px      :     0.010018
      py      :     0.004944

  3 C s       :     3.209156  s :     3.209156
      pz      :     1.000531  p :     2.712487
      px      :     0.727186
      py      :     0.984770
      dz2     :     0.008912  d :     0.066926
      dxz     :     0.013710
      dyz     :     0.013457
      dx2y2   :     0.013377
      dxy     :     0.017469

  4 H s       :     0.857300  s :     0.857300
      pz      :     0.004577  p :     0.018171
      px      :     0.006342
      py      :     0.007253

  5 H s       :     0.857295  s :     0.857295
      pz      :     0.008693  p :     0.018170
      px      :     0.002289
      py      :     0.007189

  6 F s       :     3.929108  s :     3.929108
      pz      :     1.660130  p :     5.322016
      px      :     1.724263
      py      :     1.937623
      dz2     :     0.001254  d :     0.009384
      dxz     :     0.005494
      dyz     :     0.000666
      dx2y2   :     0.001665
      dxy     :     0.000304

  7 F s       :     3.929104  s :     3.929104
      pz      :     1.924155  p :     5.322004
      px      :     1.548033
      py      :     1.849816
      dz2     :     0.001517  d :     0.009380
      dxz     :     0.001561
      dyz     :     0.001160
      dx2y2   :     0.001912
      dxy     :     0.003231



                     *******************************
                     * LOEWDIN POPULATION ANALYSIS *
                     *******************************

----------------------
LOEWDIN ATOMIC CHARGES
----------------------
   0 C :    0.048688
   1 H :    0.149524
   2 H :    0.149526
   3 C :    0.048686
   4 H :    0.149521
   5 H :    0.149524
   6 F :   -0.347734
   7 F :   -0.347736

-------------------------------
LOEWDIN REDUCED ORBITAL CHARGES
-------------------------------
  0 C s       :     2.879252  s :     2.879252
      pz      :     0.888067  p :     2.918030
      px      :     0.940244
      py      :     1.089718
      dz2     :     0.038557  d :     0.154030
      dxz     :     0.038031
      dyz     :     0.027081
      dx2y2   :     0.032374
      dxy     :     0.017987

  1 H s       :     0.807287  s :     0.807287
      pz      :     0.007654  p :     0.043189
      px      :     0.007304
      py      :     0.028230

  2 H s       :     0.807285  s :     0.807285
      pz      :     0.008403  p :     0.043189
      px      :     0.022902
      py      :     0.011884

  3 C s       :     2.879253  s :     2.879253
      pz      :     1.043696  p :     2.918030
      px      :     0.836373
      py      :     1.037961
      dz2     :     0.019088  d :     0.154030
      dxz     :     0.029954
      dyz     :     0.032867
      dx2y2   :     0.029278
      dxy     :     0.042844

  4 H s       :     0.807290  s :     0.807290
      pz      :     0.010397  p :     0.043189
      px      :     0.014525
      py      :     0.018267

  5 H s       :     0.807287  s :     0.807287
      pz      :     0.020229  p :     0.043189
      px      :     0.005957
      py      :     0.017002

  6 F s       :     3.748321  s :     3.748321
      pz      :     1.717668  p :     5.423650
      px      :     1.771996
      py      :     1.933986
      dz2     :     0.044743  d :     0.175762
      dxz     :     0.048782
      dyz     :     0.031851
      dx2y2   :     0.025944
      dxy     :     0.024442

  7 F s       :     3.748322  s :     3.748322
      pz      :     1.911359  p :     5.423651
      px      :     1.642722
      py      :     1.869571
      dz2     :     0.024192  d :     0.175763
      dxz     :     0.038186
      dyz     :     0.020174
      dx2y2   :     0.044848
      dxy     :     0.048363



                      *****************************
                      * MAYER POPULATION ANALYSIS *
                      *****************************

  NA   - Mulliken gross atomic population
  ZA   - Total nuclear charge
  QA   - Mulliken gross atomic charge
  VA   - Mayer's total valence
  BVA  - Mayer's bonded valence
  FA   - Mayer's free valence

  ATOM       NA         ZA         QA         VA         BVA        FA
  0 C      5.9886     6.0000     0.0114     3.7421     3.7421     0.0000
  1 H      0.8755     1.0000     0.1245     0.9561     0.9561    -0.0000
  2 H      0.8755     1.0000     0.1245     0.9561     0.9561     0.0000
  3 C      5.9886     6.0000     0.0114     3.7421     3.7421     0.0000
  4 H      0.8755     1.0000     0.1245     0.9561     0.9561     0.0000
  5 H      0.8755     1.0000     0.1245     0.9561     0.9561     0.0000
  6 F      9.2605     9.0000    -0.2605     0.9064     0.9064     0.0000
  7 F      9.2605     9.0000    -0.2605     0.9064     0.9064     0.0000

  Mayer bond orders larger than 0.100000
B(  0-C ,  1-H ) :   0.9755 B(  0-C ,  2-H ) :   0.9755 B(  0-C ,  3-C ) :   0.9234 
B(  0-C ,  6-F ) :   0.9079 B(  3-C ,  4-H ) :   0.9755 B(  3-C ,  5-H ) :   0.9755 
B(  3-C ,  7-F ) :   0.9079 

-------
TIMINGS
-------

Total SCF time: 0 days 0 hours 0 min 3 sec 

Total time                  ....       3.920 sec
Sum of individual times     ....       3.932 sec  (100.3%)

SCF preparation             ....       0.174 sec  (  4.4%)
Fock matrix formation       ....       1.548 sec  ( 39.5%)
  Startup                   ....       0.158 sec  ( 10.2% of F)
  Split-RI-J                ....       0.287 sec  ( 18.5% of F)
  XC integration            ....       0.613 sec  ( 39.6% of F)
    XC Preparation          ....       0.000 sec  (  0.0% of XC)
    Basis function eval.    ....       0.035 sec  (  5.7% of XC)
    Density eval.           ....       0.048 sec  (  7.8% of XC)
    XC-Functional eval.     ....       0.038 sec  (  6.1% of XC)
    XC-Potential eval.      ....       0.066 sec  ( 10.7% of XC)
Diagonalization             ....       0.000 sec  (  0.0%)
Density matrix formation    ....       0.264 sec  (  6.7%)
Total Energy calculation    ....       0.303 sec  (  7.7%)
Population analysis         ....       0.129 sec  (  3.3%)
Orbital Transformation      ....       0.161 sec  (  4.1%)
Orbital Orthonormalization  ....       0.000 sec  (  0.0%)
DIIS solution               ....       0.848 sec  ( 21.6%)
SOSCF solution              ....       0.503 sec  ( 12.8%)
Finished LeanSCF after   3.9 sec

Maximum memory used throughout the entire LEANSCF-calculation: 7.7 MB


           ************************************************************
           *        Program running with 16 parallel MPI-processes    *
           *              working on a common directory               *
           ************************************************************

------------------------------------------------------------------------------
                         ORCA PROPERTY INTEGRAL CALCULATIONS
------------------------------------------------------------------------------

GBWName                                   ... /scratch/hbxr153/tmp/965692/dihedral_EtF2.gbw
Number of atoms                           ...      8
Number of basis functions                 ...    106
Max core memory                           ...    500 MB

Dipole integrals                          ... YES
Quadrupole integrals                      ...  NO
Linear momentum integrals                 ...  NO
Angular momentum integrals                ...  NO
Higher moments length integrals           ...  NO
Higher moments velocity integrals         ...  NO
Kinetic energy integrals                  ...  NO
GIAO right hand sides                     ...  NO
GIAO dipole derivative integrals          ...  NO
SOC integrals                             ...  NO
EPR diamagnetic integrals (GIAO)          ...  NO
EPR gauge integrals                       ...  NO
Field gradient integrals                  ...  NO (   0 nuclei)
Spin-dipole/Fermi contact integrals       ...  NO (   0 nuclei)
Contact density integrals                 ...  NO (   0 nuclei)
Nucleus-orbit integrals                   ...  NO (   0 nuclei)
Geometric perturbations                   ...  NO (   8 nuclei)

Choice of electric origin   ... Center of mass
Position of electric origin ... ( -0.9366, -1.8923,  0.5257) 
Choice of magnetic origin   ... GIAO
Position of magnetic origin ... (  0.0000,  0.0000,  0.0000) 

Calculating integrals                     ... Electric Dipole (Length)     done (  0.0 sec)

Property integrals calculated in   0.0 sec

Maximum memory used throughout the entire PROPINT-calculation: 5.4 MB


-------------------------------------------------------------------------------
                          DFT DISPERSION CORRECTION                            
                                                                               
                                DFTD4 V3.4.0                                   
-------------------------------------------------------------------------------
The R2SCAN3C composite method is recognized
Using three-body term ABC
Active option DFTDOPT                   ...         5   

-------------------------   ----------------
Dispersion correction           -0.001041500
-------------------------   ----------------

------------------   -----------------
gCP correction             0.006975365
------------------   -----------------

-------------------------   --------------------
FINAL SINGLE POINT ENERGY      -278.251141491857
-------------------------   --------------------



           ************************************************************
           *        Program running with 16 parallel MPI-processes    *
           *              working on a common directory               *
           ************************************************************
------------------------------------------------------------------------------
                         ORCA SCF GRADIENT CALCULATION
------------------------------------------------------------------------------

Nuc. rep. gradient        (SHARK) ... done (  0.0 sec)
HCore & Overlap gradient  (SHARK) ... done (  0.0 sec)
done (  0.1 sec)
XC gradient                       ... done (  0.1 sec)
Dispersion correction             ... done (  0.0 sec)

-------------------
DISPERSION GRADIENT
-------------------

   1   C   :   -0.000007761   -0.000003414    0.000002790
   2   H   :   -0.000000977   -0.000004489   -0.000005859
   3   H   :   -0.000002472   -0.000001841   -0.000006777
   4   C   :   -0.000006482   -0.000001605    0.000005922
   5   H   :    0.000002345    0.000004971    0.000005022
   6   H   :    0.000003840    0.000002323    0.000005941
   7   F   :    0.000000706   -0.000005111   -0.000015884
   8   F   :    0.000010802    0.000009166    0.000008845

Difference to translation invariance:
           :    0.0000000000    0.0000000000    0.0000000000

Difference to rotation invariance:
           :   -0.0000000000   -0.0000000000    0.0000000000

Norm of the Dispersion gradient    ...    0.0000306415
RMS gradient                       ...    0.0000062547
MAX gradient                       ...    0.0000158840
gCP correction                   ... done

------------------
CARTESIAN GRADIENT
------------------

   1   C   :    0.000256705   -0.006083713   -0.017827209
   2   H   :    0.002612538    0.019217462   -0.000515311
   3   H   :    0.016664053   -0.005698409    0.008094907
   4   C   :    0.011842620    0.010374640    0.010699174
   5   H   :    0.010334156   -0.014637922   -0.007388089
   6   H   :   -0.003725663    0.010248997   -0.016044205
   7   F   :   -0.014327136   -0.000057219    0.023025236
   8   F   :   -0.023657274   -0.013363836   -0.000044502

Difference to translation invariance:
           :    0.0000000000   -0.0000000000   -0.0000000000

Difference to rotation invariance:
           :   -0.0002362108    0.0005604254   -0.0001205272

Norm of the Cartesian gradient     ...    0.0607865978
RMS gradient                       ...    0.0124080123
MAX gradient                       ...    0.0236572736

-------
TIMINGS
-------

Total SCF gradient time     ....        0.168 sec

Densities                   ....       0.000 sec  (  0.1%)
One electron gradient       ....       0.005 sec  (  3.1%)
RI-J Coulomb gradient       ....       0.051 sec  ( 30.4%)
XC gradient                 ....       0.074 sec  ( 44.2%)

Maximum memory used throughout the entire SCFGRAD-calculation: 25.1 MB


           ************************************************************
           *        Program running with 16 parallel MPI-processes    *
           *              working on a common directory               *
           ************************************************************

------------------------------------------------------------------------------
                         ORCA PROPERTY INTEGRAL CALCULATIONS
------------------------------------------------------------------------------

GBWName                                   ... /scratch/hbxr153/tmp/965692/dihedral_EtF2.gbw
Number of atoms                           ...      8
Number of basis functions                 ...    106
Max core memory                           ...    500 MB

Dipole integrals                          ...  NO
Quadrupole integrals                      ...  NO
Linear momentum integrals                 ...  NO
Angular momentum integrals                ...  NO
Higher moments length integrals           ...  NO
Higher moments velocity integrals         ...  NO
Kinetic energy integrals                  ...  NO
GIAO right hand sides                     ...  NO
GIAO dipole derivative integrals          ...  NO
SOC integrals                             ...  NO
EPR diamagnetic integrals (GIAO)          ...  NO
EPR gauge integrals                       ...  NO
Field gradient integrals                  ...  NO (   0 nuclei)
Spin-dipole/Fermi contact integrals       ...  NO (   0 nuclei)
Contact density integrals                 ...  NO (   0 nuclei)
Nucleus-orbit integrals                   ...  NO (   0 nuclei)
Geometric perturbations                   ... YES (   8 nuclei)

Choice of electric origin   ... Center of mass
Position of electric origin ... ( -0.9366, -1.8923,  0.5257) 
Choice of magnetic origin   ... GIAO
Position of magnetic origin ... (  0.0000,  0.0000,  0.0000) 

Calculating integrals                     ... Geometrical perturbation right hand sides

-----------------------
GEOMETRIC PERTURBATIONS (8 nuclei)
-----------------------

MaxCore                            ...    500 MB
Number of batches                  ...      1

BATCH   0: Atoms    0 -    7 ( 24 perturbations)
   => H(core) and overlap derivative integrals     ... done (     0.0 sec)
   => Making and storing internal U-coefficients   ... done (     0.0 sec)
done (     0.5 sec)
done (     0.0 sec)
   => XC derivative integrals                      ... done (     1.2 sec)
   => XC response operators                        ... done (     0.3 sec)
   => Completing and storing right hand sides      ... done (     0.0 sec)
   => Total time for right hand sides =   2.1 sec

  geometrical perturbations done (  2.2 sec)

Property integrals calculated in   2.2 sec

Maximum memory used throughout the entire PROPINT-calculation: 24.6 MB


           ************************************************************
           *        Program running with 16 parallel MPI-processes    *
           *              working on a common directory               *
           ************************************************************
------------------------------------------------------------------------------
                            ORCA SCF RESPONSE CALCULATION
------------------------------------------------------------------------------

GBWName                                 ... /scratch/hbxr153/tmp/965692/dihedral_EtF2.gbw
Number of atoms                         ...      8
Number of basis functions               ...    106
Max core memory                         ...    500 MB

Electric field perturbation             ...  NO
Quadrupolar field perturbation          ...  NO
Magnetic field perturbation (no GIAO)   ...  NO
Magnetic field perturbation (with GIAO) ...  NO
Linear momentum (velocity) perturbation ...  NO
Spin-orbit coupling perturbation        ...  NO
Choice of electric origin               ... Center of mass
Position of electric origin             ...    -0.936585    -1.892343     0.525723
Choice of magnetic origin               ... GIAO
Position of magnetic origin             ...     0.000000     0.000000     0.000000
Nuclear geometric perturbations         ... YES (  24 perturbations)
Nucleus-orbit perturbations             ...  NO (   0 perturbations)
Spin-dipole/Fermi contact perturbations ...  NO (   0 perturbations)

Total number of real perturbations      ...     24
Total number of imaginary perturbations ...      0
Total number of triplet perturbations   ...      0
Total number of SOC perturbations       ...      0

Using XC Grid                  ... (/scratch/hbxr153/tmp/965692/dihedral_EtF2.grid_cpscf.tmp) 
Recalculating density on grid  ... (/scratch/hbxr153/tmp/965692/dihedral_EtF2.grho_cpscf0.tmp) done
Calculating the xc-kernel      ... (/scratch/hbxr153/tmp/965692/dihedral_EtF2.fxc_cpscf0.tmp) done

                                **********************
                                * REAL PERTURBATIONS *
                                **********************



-------------------
SHARK CP-SCF DRIVER
-------------------

Dimension of the orbital basis          ...    106
Dimension of the CPSCF-problem          ...   1513
Number of operators                     ...      1
Max. number of iterations               ...    128
Convergence Tolerance                   ... 1.0e-04
Number of perturbations                 ...     24
Perturbation type                       ... REAL

----------------------------
POPLE LINEAR EQUATION SOLVER
----------------------------

  ||err||_max =   1.4991e-01 (   0.2 sec   0/ 24 done)
  ||err||_max =   1.8042e-02 (   0.2 sec   0/ 24 done)
  ||err||_max =   5.2773e-03 (   0.2 sec   0/ 24 done)
  ||err||_max =   1.4082e-03 (   0.2 sec   0/ 24 done)
  ||err||_max =   5.3053e-04 (   0.2 sec   4/ 24 done)
  ||err||_max =   1.2198e-04 (   0.3 sec  21/ 24 done)
  ||err||_max =   2.4363e-05 (   0.1 sec  24/ 24 done)

CP-SCF equations solved in   1.6 sec
Response densities calculated in   0.0 sec

Maximum memory used throughout the entire SCFRESP-calculation: 10.0 MB


           ************************************************************
           *        Program running with 16 parallel MPI-processes    *
           *              working on a common directory               *
           ************************************************************

------------------------------------------------------------------------------
                              ORCA PROPERTY CALCULATIONS
------------------------------------------------------------------------------

GBWName                                 ... /scratch/hbxr153/tmp/965692/dihedral_EtF2.gbw
Number of atoms                         ...      8
Number of basis functions               ...    106
Max core memory                         ...    500 MB

Electric properties:
Dipole moment                           ...  NO
Quadrupole moment                       ...  NO
Static polarizability (Dipole/Dipole)   ...  NO
Static polarizability (Dipole/Quad.)    ...  NO
Static polarizability (Quad./Quad.)     ...  NO
Static polarizability (Velocity)        ...  NO

Atomic electric properties:
Dipole moment                           ...  NO
Quadrupole moment                       ...  NO
Static polarizability                   ...  NO

Choice of electric origin               ... Center of mass
Position of electric origin             ...    -0.936585    -1.892343     0.525723

General magnetic properties:
Magnetizability                         ...  NO

EPR properties:
g-Tensor (aka g-matrix)                 ...  NO
Zero-Field splitting spin-orbit         ...  NO
Zero-field splitting spin-spin          ...  NO
Hyperfine couplings                     ...  NO (   0 nuclei)
Quadrupole couplings                    ...  NO (   0 nuclei)
Contact density                         ...  NO (   0 nuclei)

NMR properties:
Chemical shifts                         ...  NO (   0 nuclei)
Spin-rotation constants                 ...  NO (   0 nuclei)
Spin-spin couplings                     ...  NO (   0 nuclei,    0 pairs)

Choice of magnetic origin               ... GIAO
Position of magnetic origin             ...     0.000000     0.000000     0.000000

Properties with geometric perturbations:
SCF Hessian                             ... YES
IR spectrum                             ... YES
VCD spectrum                            ...  NO
X-ray spectroscopy properties:
SCF XES/XAS/RIXS spectra                ...  NO


-----------
SCF HESSIAN
-----------

Occupied/Occupied contributions to the Hessian:
   => Occupied/Occupied contributions              ... done (  0.0 sec)
Perturbed density contributions to the Hessian:
   => Perturbed density contributions              ... done (  0.0 sec)
Explicit contributions to the Hessian:
   => Nuclear repulsion Hessian                    ... done (  0.0 sec)
   => HCore and overlap Hessian                    ... done (  0.0 sec)
done (  0.5 sec)
   => XC-Hessian                                   ... done (  0.6 sec)
   => Van der Waals-Hessian                        ... done (  0.1 sec)
   => GCP-Hessian                                  ... done (  0.0 sec)
   => Explicit contributions done
Dipole derivatives                                 ... done (  0.0 sec)
Mass weighting the Hessian           ... done
Calculating normal modes             ... done
Scaling frequencies                  ... done

-----------------------
VIBRATIONAL FREQUENCIES
-----------------------

Scaling factor for frequencies =  1.000000000  (already applied!)

     0:       0.00 cm**-1
     1:       0.00 cm**-1
     2:       0.00 cm**-1
     3:       0.00 cm**-1
     4:       0.00 cm**-1
     5:       0.00 cm**-1
     6:    -388.51 cm**-1  ***imaginary mode***
     7:     276.92 cm**-1
     8:     634.51 cm**-1
     9:     738.15 cm**-1
    10:     939.98 cm**-1
    11:    1135.01 cm**-1
    12:    1186.08 cm**-1
    13:    1211.82 cm**-1
    14:    1227.38 cm**-1
    15:    1265.32 cm**-1
    16:    1369.34 cm**-1
    17:    1376.81 cm**-1
    18:    1478.55 cm**-1
    19:    1492.89 cm**-1
    20:    3245.49 cm**-1
    21:    3253.44 cm**-1
    22:    3304.37 cm**-1
    23:    3331.60 cm**-1


------------
NORMAL MODES
------------

These modes are the Cartesian displacements weighted by the diagonal matrix
M(i,i)=1/sqrt(m[i]) where m[i] is the mass of the displaced atom
Thus, these vectors are normalized but *not* orthogonal

                  0          1          2          3          4          5    
      0       0.000000   0.000000   0.000000   0.000000   0.000000   0.000000
      1       0.000000   0.000000   0.000000   0.000000   0.000000   0.000000
      2       0.000000   0.000000   0.000000   0.000000   0.000000   0.000000
      3       0.000000   0.000000   0.000000   0.000000   0.000000   0.000000
      4       0.000000   0.000000   0.000000   0.000000   0.000000   0.000000
      5       0.000000   0.000000   0.000000   0.000000   0.000000   0.000000
      6       0.000000   0.000000   0.000000   0.000000   0.000000   0.000000
      7       0.000000   0.000000   0.000000   0.000000   0.000000   0.000000
      8       0.000000   0.000000   0.000000   0.000000   0.000000   0.000000
      9       0.000000   0.000000   0.000000   0.000000   0.000000   0.000000
     10       0.000000   0.000000   0.000000   0.000000   0.000000   0.000000
     11       0.000000   0.000000   0.000000   0.000000   0.000000   0.000000
     12       0.000000   0.000000   0.000000   0.000000   0.000000   0.000000
     13       0.000000   0.000000   0.000000   0.000000   0.000000   0.000000
     14       0.000000   0.000000   0.000000   0.000000   0.000000   0.000000
     15       0.000000   0.000000   0.000000   0.000000   0.000000   0.000000
     16       0.000000   0.000000   0.000000   0.000000   0.000000   0.000000
     17       0.000000   0.000000   0.000000   0.000000   0.000000   0.000000
     18       0.000000   0.000000   0.000000   0.000000   0.000000   0.000000
     19       0.000000   0.000000   0.000000   0.000000   0.000000   0.000000
     20       0.000000   0.000000   0.000000   0.000000   0.000000   0.000000
     21       0.000000   0.000000   0.000000   0.000000   0.000000   0.000000
     22       0.000000   0.000000   0.000000   0.000000   0.000000   0.000000
     23       0.000000   0.000000   0.000000   0.000000   0.000000   0.000000
                  6          7          8          9         10         11    
      0      -0.064590  -0.108613  -0.284985   0.035286   0.210891   0.085775
      1       0.114219  -0.032746  -0.207871  -0.063397   0.179453  -0.153454
      2      -0.039666   0.084957  -0.136633   0.021690   0.175221   0.053518
      3      -0.452097  -0.024047  -0.264865  -0.411372   0.113252  -0.470817
      4       0.146116  -0.085644  -0.222004  -0.069366   0.226999  -0.096472
      5      -0.098912  -0.139843  -0.149030  -0.269754   0.356273   0.031089
      6       0.110503  -0.043581  -0.282867   0.209814   0.146004   0.345554
      7       0.459466  -0.057686  -0.196334   0.425672   0.175406   0.317215
      8      -0.111693  -0.149873  -0.160078   0.145431   0.376009  -0.106848
      9       0.064439  -0.121295   0.082785   0.035616   0.013649  -0.086267
     10      -0.114400  -0.048947  -0.078121  -0.063144  -0.100457   0.153482
     11       0.039887   0.054592  -0.361107   0.021810  -0.312013  -0.053206
     12      -0.002148   0.066089   0.071717  -0.049261  -0.145446  -0.228953
     13      -0.305927   0.100259  -0.103703   0.059023  -0.238048  -0.150771
     14       0.376043   0.111812  -0.354827  -0.491076  -0.337983   0.396333
     15       0.343527   0.079765   0.056924  -0.152062  -0.174636   0.354828
     16      -0.299054   0.071098  -0.077085   0.298619  -0.183432  -0.069014
     17      -0.165954   0.127223  -0.368345   0.367059  -0.356310  -0.318900
     18       0.048450   0.285403  -0.039065  -0.011866  -0.056636  -0.021656
     19      -0.085341   0.330063   0.065956   0.021001  -0.006990   0.039241
     20       0.029965   0.484938   0.254199  -0.007193   0.071890  -0.013917
     21      -0.048344  -0.144200   0.189137  -0.011583  -0.082096   0.021935
     22       0.085424  -0.279901   0.146643   0.021121  -0.041942  -0.039310
     23      -0.030077  -0.570475   0.115256  -0.007133   0.012577   0.013631
                 12         13         14         15         16         17    
      0      -0.243012  -0.015756  -0.201310  -0.024625   0.031090   0.020370
      1      -0.075895   0.027550   0.011665   0.043494  -0.022851   0.044885
      2       0.173868  -0.009292   0.361074  -0.014853  -0.116264   0.096517
      3      -0.189596  -0.050505  -0.201581   0.225301   0.028977   0.060941
      4      -0.029641   0.123966   0.014511  -0.064085   0.102050  -0.075092
      5       0.372321   0.481967   0.299589  -0.440550   0.482830  -0.481398
      6      -0.232607   0.061351  -0.184348  -0.195150  -0.035272   0.106686
      7       0.040355  -0.144096  -0.018856   0.010077   0.216143  -0.155006
      8       0.347755  -0.472782   0.317567   0.458200   0.444772  -0.455288
      9       0.262474   0.015093  -0.352629  -0.024388  -0.094715  -0.052106
     10       0.101594  -0.027922  -0.206791   0.042918  -0.066870  -0.056571
     11      -0.130730   0.009408  -0.021978  -0.015082  -0.038795  -0.077906
     12       0.389769  -0.350932  -0.301331  -0.403069   0.334078   0.382593
     13       0.177743  -0.265025  -0.191562  -0.285110   0.209518   0.233304
     14       0.024207  -0.235130   0.007248  -0.054895   0.292513   0.214814
     15       0.344929   0.339896  -0.327203   0.434844   0.269118   0.335721
     16       0.247315   0.286341  -0.163105   0.233197   0.319797   0.311417
     17       0.001950   0.229058  -0.007081   0.074624   0.252500   0.186769
     18       0.158013  -0.009680   0.177240   0.013948  -0.000183  -0.018371
     19       0.040885   0.017574   0.034809  -0.024562   0.004252  -0.011459
     20      -0.138420  -0.006296  -0.187361   0.008432   0.012699  -0.003254
     21      -0.186898   0.010109   0.226799   0.013753   0.008737  -0.008571
     22      -0.080254  -0.017401   0.107603  -0.024450   0.007505   0.002154
     23       0.071553   0.006057  -0.059778   0.008510   0.007199   0.019879
                 18         19         20         21         22         23    
      0      -0.052831  -0.047605   0.039239   0.039603   0.031882  -0.032794
      1      -0.025963  -0.021876   0.023717   0.024655  -0.056179   0.057703
      2       0.010932   0.014287   0.004172   0.005294   0.019528  -0.020067
      3       0.495516   0.488100  -0.042046  -0.044032   0.052756  -0.054350
      4      -0.073098  -0.058090  -0.481203  -0.495260   0.480322  -0.488325
      5       0.014195   0.066562   0.102304   0.101597  -0.090689   0.092081
      6       0.214560   0.207929  -0.427609  -0.435808  -0.433781   0.442104
      7       0.423721   0.437235   0.203459   0.205371   0.190937  -0.193810
      8      -0.158326  -0.105477  -0.134983  -0.140531  -0.142537   0.145088
      9       0.038217  -0.038100  -0.021386   0.019912  -0.032213  -0.032041
     10       0.005997  -0.008124   0.002664  -0.003200   0.057241   0.056790
     11      -0.044789   0.038510   0.041868  -0.041183  -0.020051  -0.019700
     12      -0.118323   0.082263   0.331909  -0.321828   0.322888   0.318751
     13      -0.286674   0.261472  -0.361010   0.353604  -0.355533  -0.350583
     14       0.386381  -0.419581  -0.124706   0.124215  -0.138140  -0.136871
     15      -0.396083   0.365382  -0.064005   0.064051   0.062005   0.060182
     16       0.205313  -0.239533   0.339320  -0.329316  -0.328400  -0.320900
     17       0.215856  -0.245659  -0.366230   0.360144   0.377676   0.369793
     18      -0.005822  -0.004409   0.000703   0.000668  -0.000172   0.000158
     19      -0.002703  -0.002825  -0.000047   0.000130   0.000316  -0.000292
     20       0.001711  -0.000975  -0.001267  -0.000704  -0.000113   0.000103
     21       0.004679  -0.002087  -0.001286   0.000842   0.000177   0.000153
     22       0.001039   0.000511  -0.000744   0.000398  -0.000314  -0.000272
     23      -0.004612   0.004957  -0.000058  -0.000240   0.000108   0.000097


-----------
IR SPECTRUM
-----------

 Mode   freq       eps      Int      T**2         TX        TY        TZ
       cm**-1   L/(mol*cm) km/mol    a.u.
----------------------------------------------------------------------------
  7:    276.92   0.000081    0.41  0.000091  (-0.007821 -0.002911  0.004659)
  8:    634.51   0.005207   26.31  0.002561  (-0.016695 -0.023773 -0.041438)
  9:    738.15   0.000109    0.55  0.000046  ( 0.003088 -0.005760  0.001872)
 10:    939.98   0.002435   12.30  0.000808  ( 0.023261  0.008322 -0.014069)
 11:   1135.01   0.000000    0.00  0.000000  (-0.000021  0.000115  0.000204)
 12:   1186.08   0.003221   16.28  0.000848  ( 0.009974  0.013838  0.023592)
 13:   1211.82   0.000000    0.00  0.000000  (-0.000219 -0.000068  0.000134)
 14:   1227.38   0.029718  150.18  0.007556  (-0.070952 -0.024954  0.043578)
 15:   1265.32   0.000291    1.47  0.000072  (-0.004101  0.007019 -0.002379)
 16:   1369.34   0.001603    8.10  0.000365  (-0.006342 -0.009062 -0.015587)
 17:   1376.81   0.000766    3.87  0.000174  (-0.010796 -0.003936  0.006442)
 18:   1478.55   0.000906    4.58  0.000191  ( 0.004545  0.006507  0.011322)
 19:   1492.89   0.000017    0.08  0.000003  ( 0.001548  0.000476 -0.000912)
 20:   3245.49   0.003341   16.88  0.000321  ( 0.005507  0.008372  0.014859)
 21:   3253.44   0.011646   58.86  0.001117  ( 0.027342  0.009849 -0.016508)
 22:   3304.37   0.000001    0.01  0.000000  (-0.000088  0.000209 -0.000269)
 23:   3331.60   0.009128   46.13  0.000855  (-0.014029  0.024252 -0.008368)

* The epsilon (eps) is given for a Dirac delta lineshape.
** The dipole moment derivative (T) already includes vibrational overlap.

The first frequency considered to be a vibration is 7
The total number of vibrations considered is 17


--------------------------
THERMOCHEMISTRY AT 298.15K
--------------------------

Temperature         ...   298.15 K
Pressure            ...     1.00 atm
Total Mass          ...    66.05 AMU
Quasi RRHO          ...     True
Cut-Off Frequency   ...     1.00 cm^-1

Throughout the following assumptions are being made:
  (1) The electronic state is orbitally nondegenerate
  (2) There are no thermally accessible electronically excited states
  (3) Hindered rotations indicated by low frequency modes are not
      treated as such but are treated as vibrations and this may
      cause some error
  (4) All equations used are the standard statistical mechanics
      equations for an ideal gas
  (5) All vibrations are strictly harmonic

freq.     276.92  E(vib)   ...       0.28 
freq.     634.51  E(vib)   ...       0.09 
freq.     738.15  E(vib)   ...       0.06 
freq.     939.98  E(vib)   ...       0.03 
freq.    1135.01  E(vib)   ...       0.01 
freq.    1186.08  E(vib)   ...       0.01 
freq.    1211.82  E(vib)   ...       0.01 
freq.    1227.38  E(vib)   ...       0.01 
freq.    1265.32  E(vib)   ...       0.01 
freq.    1369.34  E(vib)   ...       0.01 
freq.    1376.81  E(vib)   ...       0.01 
freq.    1478.55  E(vib)   ...       0.00 
freq.    1492.89  E(vib)   ...       0.00 
freq.    3245.49  E(vib)   ...       0.00 
freq.    3253.44  E(vib)   ...       0.00 
freq.    3304.37  E(vib)   ...       0.00 
freq.    3331.60  E(vib)   ...       0.00 

------------
INNER ENERGY
------------

The inner energy is: U= E(el) + E(ZPE) + E(vib) + E(rot) + E(trans)
    E(el)   - is the total energy from the electronic structure calculation
              = E(kin-el) + E(nuc-el) + E(el-el) + E(nuc-nuc)
    E(ZPE)  - the the zero temperature vibrational energy from the frequency calculation
    E(vib)  - the the finite temperature correction to E(ZPE) due to population
              of excited vibrational states
    E(rot)  - is the rotational thermal energy
    E(trans)- is the translational thermal energy

Summary of contributions to the inner energy U:
Electronic energy                ...   -278.25114149 Eh
Zero point energy                ...      0.06257595 Eh      39.27 kcal/mol
Thermal vibrational correction   ...      0.00084679 Eh       0.53 kcal/mol
Thermal rotational correction    ...      0.00141627 Eh       0.89 kcal/mol
Thermal translational correction ...      0.00141627 Eh       0.89 kcal/mol
-----------------------------------------------------------------------
Total thermal energy                   -278.18488620 Eh


Summary of corrections to the electronic energy:
(perhaps to be used in another calculation)
Total thermal correction                  0.00367934 Eh       2.31 kcal/mol
Non-thermal (ZPE) correction              0.06257595 Eh      39.27 kcal/mol
-----------------------------------------------------------------------
Total correction                          0.06625529 Eh      41.58 kcal/mol


--------
ENTHALPY
--------

The enthalpy is H = U + kB*T
                kB is Boltzmann's constant
Total thermal energy              ...   -278.18488620 Eh 
Thermal Enthalpy correction       ...      0.00094421 Eh       0.59 kcal/mol
-----------------------------------------------------------------------
Total Enthalpy                    ...   -278.18394199 Eh


Note: Rotational entropy computed according to Herzberg 
Infrared and Raman Spectra, Chapter V,1, Van Nostrand Reinhold, 1945 
Point Group:  C2v, Symmetry Number:   2  
Rotational constants in cm-1:     0.508326     0.213411     0.159035 

Vibrational entropy computed according to the QRRHO of S. Grimme
Chem.Eur.J. 2012 18 9955 using a reference frequency of 100.0 cm-1


-------
ENTROPY
-------

The entropy contributions are T*S = T*(S(el)+S(vib)+S(rot)+S(trans))
     S(el)   - electronic entropy
     S(vib)  - vibrational entropy
     S(rot)  - rotational entropy
     S(trans)- translational entropy
The entropies will be listed as multiplied by the temperature to get
units of energy

Electronic entropy                ...      0.00000000 Eh      0.00 kcal/mol
Vibrational entropy               ...      0.00123832 Eh      0.78 kcal/mol
Rotational entropy                ...      0.01077295 Eh      6.76 kcal/mol
Translational entropy             ...      0.01828383 Eh     11.47 kcal/mol
-----------------------------------------------------------------------
Final entropy term                ...      0.03029510 Eh     19.01 kcal/mol

In case the symmetry of your molecule has not been determined correctly
or in case you have a reason to use a different symmetry number we print 
out the resulting rotational entropy values for sn=1,12:

 non-linear molecules -----------------------------------
|  sn= 1 | S(rot)=       0.01142740 Eh      7.17 kcal/mol|
|  sn= 2 | S(rot)=       0.01077295 Eh      6.76 kcal/mol|
|  sn= 3 | S(rot)=       0.01039011 Eh      6.52 kcal/mol|
|  sn= 4 | S(rot)=       0.01011849 Eh      6.35 kcal/mol|
|  sn= 5 | S(rot)=       0.00990780 Eh      6.22 kcal/mol|
|  sn= 6 | S(rot)=       0.00973566 Eh      6.11 kcal/mol|
|  sn= 7 | S(rot)=       0.00959011 Eh      6.02 kcal/mol|
|  sn= 8 | S(rot)=       0.00946403 Eh      5.94 kcal/mol|
|  sn= 9 | S(rot)=       0.00935283 Eh      5.87 kcal/mol|
|  sn=10 | S(rot)=       0.00925335 Eh      5.81 kcal/mol|
|  sn=11 | S(rot)=       0.00916336 Eh      5.75 kcal/mol|
|  sn=12 | S(rot)=       0.00908120 Eh      5.70 kcal/mol|
 linear molecules ---------------------------------------
|  Dinfh | S(rot)=       0.00706181 Eh      4.43 kcal/mol|
|  Cinfv | S(rot)=       0.00771626 Eh      4.84 kcal/mol|
 --------------------------------------------------------


-------------------
GIBBS FREE ENERGY
-------------------

The Gibbs free energy is G = H - T*S

Total enthalpy                    ...   -278.18394199 Eh 
Total entropy correction          ...     -0.03029510 Eh    -19.01 kcal/mol
-----------------------------------------------------------------------
Final Gibbs free energy         ...   -278.21423709 Eh

For completeness - the Gibbs free energy minus the electronic energy
G-E(el)                           ...      0.03690440 Eh     23.16 kcal/mol


Maximum memory used throughout the entire PROP-calculation: 25.3 MB
Actual Hessian File stored as /scratch/hbxr153/tmp/965692/dihedral_EtF2.001.hess
------------------------------------------------------------------------------
[...]
     20       0.000000   0.000000   0.000000   0.000000   0.000000   0.000000
     21       0.000000   0.000000   0.000000   0.000000   0.000000   0.000000
     22       0.000000   0.000000   0.000000   0.000000   0.000000   0.000000
     23       0.000000   0.000000   0.000000   0.000000   0.000000   0.000000
                  6          7          8          9         10         11    
      0       0.073514   0.104144   0.273914  -0.035371   0.240576   0.309885
      1      -0.129992   0.027103   0.206328   0.064695   0.186471   0.091850
      2       0.045063  -0.096900   0.149825  -0.021693   0.149072  -0.241972
      3       0.442413   0.031749   0.267794   0.415480   0.140570   0.232778
      4      -0.160107   0.070689   0.219840   0.065149   0.228541   0.076302
      5       0.101814   0.103881   0.153081   0.265306   0.328976  -0.280453
      6      -0.093413   0.046523   0.280367  -0.209579   0.173538   0.262207
      7      -0.458692   0.056393   0.198472  -0.427711   0.191049   0.012307
      8       0.113692   0.109850   0.161024  -0.136933   0.349302  -0.260130
      9      -0.073095   0.126368  -0.068456  -0.036079   0.049955  -0.344139
     10       0.130121   0.055945   0.084761   0.064136  -0.085913  -0.141044
     11      -0.045484  -0.039672   0.355878  -0.023267  -0.326371   0.155075
     12      -0.009857  -0.042375  -0.068951   0.045745  -0.113877  -0.344042
     13       0.312442  -0.073110   0.100829  -0.066342  -0.218050  -0.128094
     14      -0.366656  -0.093082   0.356547   0.489510  -0.358055   0.061701
     15      -0.339309  -0.047278  -0.057727   0.158951  -0.138456  -0.311261
     16       0.306424  -0.056722   0.079990  -0.298676  -0.171156  -0.188528
     17       0.151315  -0.105854   0.365843  -0.365212  -0.365501   0.086264
     18      -0.051309  -0.291712   0.044627   0.011812  -0.080189  -0.182261
     19       0.089922  -0.338748  -0.064698  -0.021281  -0.014361  -0.047956
     20      -0.031826  -0.497903  -0.259562   0.007606   0.088428   0.158525
     21       0.051053   0.146581  -0.196885   0.011575  -0.106770   0.212423
     22      -0.090007   0.286389  -0.151125  -0.021566  -0.050827   0.091156
     23       0.032084   0.583462  -0.115150   0.007413   0.026067  -0.082755
                 12         13         14         15         16         17    
      0      -0.163050  -0.079182  -0.016111  -0.023414   0.019846   0.011032
      1       0.044818   0.139896   0.028495   0.041368  -0.022525   0.037157
      2       0.395110  -0.048128  -0.009920  -0.014403  -0.097237   0.089044
      3      -0.119626   0.476232  -0.047389   0.219084  -0.047592   0.138069
      4       0.051849   0.085250   0.114132  -0.055127   0.092442  -0.072474
      5       0.335381  -0.027831   0.485033  -0.442514   0.484900  -0.468971
      6      -0.116597  -0.340690   0.068695  -0.199528  -0.085565   0.147160
      7       0.047319  -0.327571  -0.151973   0.019347   0.160572  -0.089533
      8       0.335115   0.113483  -0.471778   0.455172   0.461398  -0.462708
      9      -0.354986   0.079204   0.016361  -0.023185  -0.075425  -0.051950
     10      -0.227557  -0.139753  -0.028675   0.041148  -0.056054  -0.051690
     11      -0.079215   0.048130   0.009910  -0.014196  -0.038872  -0.064458
     12      -0.289312   0.223967  -0.355650  -0.410814   0.366498   0.396277
     13      -0.196389   0.161815  -0.255520  -0.278108   0.237950   0.261464
     14      -0.088372  -0.398894  -0.236493  -0.059672   0.229525   0.143119
     15      -0.289573  -0.359544   0.334556   0.430512   0.328427   0.387167
     16      -0.192541   0.079600   0.293752   0.242823   0.305184   0.278108
     17      -0.089966   0.314188   0.223355   0.072215   0.205753   0.137508
     18       0.159819   0.017948  -0.010088   0.013701   0.012475  -0.019344
     19       0.029478  -0.031426   0.017865  -0.024158   0.007151  -0.010971
     20      -0.175416   0.010718  -0.006194   0.008369   0.000346  -0.000070
     21       0.210944  -0.017960   0.009919   0.013677  -0.007143  -0.011488
     22       0.101428   0.031383  -0.017772  -0.024239   0.000286   0.000126
     23      -0.050414  -0.010770   0.006193   0.008375   0.012401   0.019069
                 18         19         20         21         22         23    
      0       0.050067  -0.048389  -0.037886  -0.039572  -0.032010  -0.033117
      1       0.028526  -0.028918  -0.023761  -0.026014   0.055853   0.057964
      2       0.001042  -0.004758  -0.005947  -0.007863  -0.019496  -0.020198
      3      -0.489454   0.481718   0.038901   0.042833  -0.050140  -0.052467
      4       0.060434  -0.049617   0.475127   0.509347  -0.476796  -0.491577
      5      -0.063616   0.124972  -0.091237  -0.093000   0.079324   0.081728
      6      -0.207371   0.194890   0.416101   0.438829   0.431499   0.443507
      7      -0.437782   0.457086  -0.197372  -0.205493  -0.188441  -0.192784
      8       0.109098  -0.050567   0.141196   0.152720   0.152611   0.156606
      9      -0.029330  -0.025665   0.020127  -0.017716   0.032385  -0.031843
     10       0.000842   0.002898  -0.004096   0.004889  -0.057661   0.056492
     11       0.049987   0.049952  -0.043294   0.041261   0.020463  -0.019700
     12       0.083076   0.034794  -0.330808   0.309077  -0.314485   0.308129
     13       0.263170   0.230029   0.374468  -0.354392   0.361138  -0.353332
     14      -0.416404  -0.439089   0.130841  -0.126550   0.142253  -0.139857
     15       0.366352   0.319667   0.073149  -0.070465  -0.070928   0.067832
     16      -0.238242  -0.273956  -0.338999   0.315178   0.325691  -0.313669
     17      -0.242617  -0.264254   0.375494  -0.355207  -0.385861   0.372472
     18       0.006022  -0.003982  -0.000917  -0.000848   0.000133   0.000187
     19       0.002210  -0.001466   0.000038  -0.000090  -0.000254  -0.000345
     20      -0.003497   0.002288   0.001577   0.001104   0.000096   0.000124
     21      -0.006006  -0.003906   0.001674  -0.001149  -0.000155   0.000186
     22      -0.002079  -0.001373   0.000955  -0.000596   0.000252  -0.000316
     23       0.003789   0.002510   0.000039   0.000174  -0.000088   0.000112


-----------
IR SPECTRUM
-----------

 Mode   freq       eps      Int      T**2         TX        TY        TZ
       cm**-1   L/(mol*cm) km/mol    a.u.
----------------------------------------------------------------------------
  7:    270.89   0.000061    0.31  0.000071  ( 0.006979  0.002704 -0.003846)
  8:    612.80   0.005784   29.23  0.002945  ( 0.017933  0.025520  0.044413)
  9:    846.45   0.000072    0.36  0.000026  (-0.002166  0.004404 -0.001534)
 10:    899.93   0.004875   24.64  0.001690  ( 0.033621  0.011912 -0.020451)
 11:   1079.87   0.003561   17.99  0.001029  (-0.010601 -0.015116 -0.026232)
 12:   1115.13   0.026292  132.87  0.007358  (-0.070055 -0.024692  0.042900)
 13:   1167.76   0.000000    0.00  0.000000  (-0.000043 -0.000066 -0.000020)
 14:   1254.58   0.000000    0.00  0.000000  ( 0.000047  0.000025  0.000010)
 15:   1293.16   0.000266    1.34  0.000064  (-0.003837  0.006655 -0.002280)
 16:   1410.70   0.001570    7.94  0.000347  (-0.006147 -0.008825 -0.015222)
 17:   1419.14   0.000289    1.46  0.000064  (-0.006521 -0.002391  0.003921)
 18:   1506.66   0.000352    1.78  0.000073  (-0.002768 -0.004001 -0.007018)
 19:   1521.23   0.000219    1.11  0.000045  ( 0.005526  0.001933 -0.003255)
 20:   3014.10   0.003400   17.18  0.000352  (-0.005240 -0.008663 -0.015796)
 21:   3021.45   0.010272   51.91  0.001061  (-0.026752 -0.009800  0.015786)
 22:   3059.82   0.000003    0.02  0.000000  ( 0.000030 -0.000399  0.000425)
 23:   3087.21   0.008627   43.60  0.000872  (-0.014186  0.024467 -0.008496)

* The epsilon (eps) is given for a Dirac delta lineshape.
** The dipole moment derivative (T) already includes vibrational overlap.

The first frequency considered to be a vibration is 7
The total number of vibrations considered is 17


--------------------------
THERMOCHEMISTRY AT 298.15K
--------------------------

Temperature         ...   298.15 K
Pressure            ...     1.00 atm
Total Mass          ...    66.05 AMU
Quasi RRHO          ...     True
Cut-Off Frequency   ...     1.00 cm^-1

Throughout the following assumptions are being made:
  (1) The electronic state is orbitally nondegenerate
  (2) There are no thermally accessible electronically excited states
  (3) Hindered rotations indicated by low frequency modes are not
      treated as such but are treated as vibrations and this may
      cause some error
  (4) All equations used are the standard statistical mechanics
      equations for an ideal gas
  (5) All vibrations are strictly harmonic

freq.     270.89  E(vib)   ...       0.29 
freq.     612.80  E(vib)   ...       0.10 
freq.     846.45  E(vib)   ...       0.04 
freq.     899.93  E(vib)   ...       0.03 
freq.    1079.87  E(vib)   ...       0.02 
freq.    1115.13  E(vib)   ...       0.01 
freq.    1167.76  E(vib)   ...       0.01 
freq.    1254.58  E(vib)   ...       0.01 
freq.    1293.16  E(vib)   ...       0.01 
freq.    1410.70  E(vib)   ...       0.00 
freq.    1419.14  E(vib)   ...       0.00 
freq.    1506.66  E(vib)   ...       0.00 
freq.    1521.23  E(vib)   ...       0.00 
freq.    3014.10  E(vib)   ...       0.00 
freq.    3021.45  E(vib)   ...       0.00 
freq.    3059.82  E(vib)   ...       0.00 
freq.    3087.21  E(vib)   ...       0.00 

------------
INNER ENERGY
------------

The inner energy is: U= E(el) + E(ZPE) + E(vib) + E(rot) + E(trans)
    E(el)   - is the total energy from the electronic structure calculation
              = E(kin-el) + E(nuc-el) + E(el-el) + E(nuc-nuc)
    E(ZPE)  - the the zero temperature vibrational energy from the frequency calculation
    E(vib)  - the the finite temperature correction to E(ZPE) due to population
              of excited vibrational states
    E(rot)  - is the rotational thermal energy
    E(trans)- is the translational thermal energy

Summary of contributions to the inner energy U:
Electronic energy                ...   -278.25552284 Eh
Zero point energy                ...      0.06055571 Eh      38.00 kcal/mol
Thermal vibrational correction   ...      0.00084875 Eh       0.53 kcal/mol
Thermal rotational correction    ...      0.00141627 Eh       0.89 kcal/mol
Thermal translational correction ...      0.00141627 Eh       0.89 kcal/mol
-----------------------------------------------------------------------
Total thermal energy                   -278.19128584 Eh


Summary of corrections to the electronic energy:
(perhaps to be used in another calculation)
Total thermal correction                  0.00368129 Eh       2.31 kcal/mol
Non-thermal (ZPE) correction              0.06055571 Eh      38.00 kcal/mol
-----------------------------------------------------------------------
Total correction                          0.06423700 Eh      40.31 kcal/mol


--------
ENTHALPY
--------

The enthalpy is H = U + kB*T
                kB is Boltzmann's constant
Total thermal energy              ...   -278.19128584 Eh 
Thermal Enthalpy correction       ...      0.00094421 Eh       0.59 kcal/mol
-----------------------------------------------------------------------
Total Enthalpy                    ...   -278.19034163 Eh


Note: Only C1 symmetry has been detected, increase convergence thresholds 
      if your molecule has a higher symmetry. Symmetry factor of 1.0 is   
      used for the rotational entropy correction. 
 

Note: Rotational entropy computed according to Herzberg 
Infrared and Raman Spectra, Chapter V,1, Van Nostrand Reinhold, 1945 
Point Group:  C1, Symmetry Number:   1  
Rotational constants in cm-1:     0.491177     0.200762     0.150706 

Vibrational entropy computed according to the QRRHO of S. Grimme
Chem.Eur.J. 2012 18 9955 using a reference frequency of 100.0 cm-1


-------
ENTROPY
-------

The entropy contributions are T*S = T*(S(el)+S(vib)+S(rot)+S(trans))
     S(el)   - electronic entropy
     S(vib)  - vibrational entropy
     S(rot)  - rotational entropy
     S(trans)- translational entropy
The entropies will be listed as multiplied by the temperature to get
units of energy

Electronic entropy                ...      0.00000000 Eh      0.00 kcal/mol
Vibrational entropy               ...      0.00124839 Eh      0.78 kcal/mol
Rotational entropy                ...      0.01149784 Eh      7.21 kcal/mol
Translational entropy             ...      0.01828383 Eh     11.47 kcal/mol
-----------------------------------------------------------------------
Final entropy term                ...      0.03103007 Eh     19.47 kcal/mol

In case the symmetry of your molecule has not been determined correctly
or in case you have a reason to use a different symmetry number we print 
out the resulting rotational entropy values for sn=1,12:

 non-linear molecules -----------------------------------
|  sn= 1 | S(rot)=       0.01149784 Eh      7.21 kcal/mol|
|  sn= 2 | S(rot)=       0.01084339 Eh      6.80 kcal/mol|
|  sn= 3 | S(rot)=       0.01046056 Eh      6.56 kcal/mol|
|  sn= 4 | S(rot)=       0.01018893 Eh      6.39 kcal/mol|
|  sn= 5 | S(rot)=       0.00997824 Eh      6.26 kcal/mol|
|  sn= 6 | S(rot)=       0.00980610 Eh      6.15 kcal/mol|
|  sn= 7 | S(rot)=       0.00966055 Eh      6.06 kcal/mol|
|  sn= 8 | S(rot)=       0.00953448 Eh      5.98 kcal/mol|
|  sn= 9 | S(rot)=       0.00942327 Eh      5.91 kcal/mol|
|  sn=10 | S(rot)=       0.00932379 Eh      5.85 kcal/mol|
|  sn=11 | S(rot)=       0.00923380 Eh      5.79 kcal/mol|
|  sn=12 | S(rot)=       0.00915164 Eh      5.74 kcal/mol|
 linear molecules ---------------------------------------
|  Dinfh | S(rot)=       0.00711260 Eh      4.46 kcal/mol|
|  Cinfv | S(rot)=       0.00776705 Eh      4.87 kcal/mol|
 --------------------------------------------------------


-------------------
GIBBS FREE ENERGY
-------------------

The Gibbs free energy is G = H - T*S

Total enthalpy                    ...   -278.19034163 Eh 
Total entropy correction          ...     -0.03103007 Eh    -19.47 kcal/mol
-----------------------------------------------------------------------
Final Gibbs free energy         ...   -278.22137169 Eh

For completeness - the Gibbs free energy minus the electronic energy
G-E(el)                           ...      0.03415114 Eh     21.43 kcal/mol


Maximum memory used throughout the entire PROP-calculation: 25.3 MB

--------------------------------
SUGGESTED CITATIONS FOR THIS RUN
--------------------------------

Below you find a list of papers that are relevant to this ORCA run
We neither can nor want to force you to cite these papers, but we appreciate if you do
You receive ORCA, which is the product of decades of hard work by many enthusiastic individuals, for free
The only thing we kindly ask in return is that you cite our papers,
We deeply appreciate it, if you show your appreciation for ORCA by not just citing the generic ORCA reference.

Please note that relegating all ORCA citations to the supporting information does *not* help us.
SI sections are not indexed - citations you put there will not count into any citation statistics
But we need these citations in order to attract the funding resources that allow us to do what we are doing

Therefore, if you are a happy ORCA user, please consider citing a few of the papers listed below in the main body of your paper

In addition to the list printed below, the program has created the file /scratch/hbxr153/tmp/965692/dihedral_EtF2.bibtex that contains the list in bibtex format
You can import this file easily into all common literature databanks and citation aid programs


List of essential papers. We consider these as the minimum necessary citations

  1. Neese,F.
     Software update: the ORCA program system, version 5.0
     WIRES Comput. Molec. Sci., 2022 12(1)e1606
     doi.org/10.1002/wcms.1606
  2. Grimme,S.; Hansen,A.; Ehlert,S.; Mewes,J.
     r2SCAN-3c: A 'Swiss army knife' composite electronic-structure method
     J. Chem. Phys., 2021 154 064103
     doi.org/10.1063/5.0040021

List of papers to cite with high priority. The work reported in these papers was absolutely
necessary for this run to complete.
Our perspective: the developers of density functionals and basis sets usually get cited in chemistry papers
Good! But without the algorithms to do something with them, the functionals or basis sets would not do anything.
Hence, in our opinion, the algorithm design and method developments papers are equally worthy of getting cited

  1. Neese,F.
     An improvement of the resolution of the identity approximation for the formation of the Coulomb matrix
     J. Comp. Chem., 2003 24(14)1740-1747
     doi.org/10.1002/jcc.10318
  2. Bykov,D.; Petrenko,T.; Izsak,R.; Kossmann,S.; Becker,U.; Valeev,E.; Neese,F.
     Efficient implementation of the analytic second derivatives of Hartree-Fock and hybrid DFT energies: a detailed analysis of different approximations
     Molec. Phys., 2015 113 1961-1977
     doi.org/10.1080/00268976.2015.1025114
  3. Neese,F.
     The SHARK Integral Generation and Digestion System
     J. Comp. Chem., 2022  1-16
     doi.org/10.1002/jcc.26942
  4. Lehtola,S.; Steigemann,C.; Oliveira,M.; Marques,M.
     Recent developments in Libxc - A comprehensive library of functionals for density functional theory
     Software X, 2018 7 
     doi.org/10.1016/j.softx.2017.11.002
  5. Caldeweyher,E.; Bannwarth,C.; Grimme,S.
     Extension of the D3 dispersion coefficient model
     J. Chem. Phys., 2017 147 034112
     doi.org/10.1063/1.4993215
  6. Caldeweyher,E.; Ehlert,S.; Hansen,A.; Neugebauer,H.; Spicher,S.; Bannwarth,C.; Grimme,S.
     A generally applicable atomic-charge dependent London dispersion correction
     J. Chem. Phys., 2019 150 154122
     doi.org/10.1063/1.5090222
  7. Caldeweyher,E.; Mewes,J.; Ehlert,S.; Grimme,S.
     Extension and evaluation of the D4 London-dispersion model for periodic systems
     Phys. Chem. Chem. Phys., 2020 22(16)8499-8512
     doi.org/10.1039/D0CP00502A
  8. Wittmann,L.; Gordiy,I.; Friede,M.; Helmich-Paris,B.; Grimme,S.; Hansen,A.; Bursch,M.
     Extension of the D3 and D4 London Dispersion Corrections to the full Actinides Series
     Phys. Chem. Chem. Phys., 2024 26(32)21379-21394
     doi.org/https://doi.org/10.1039/D4CP01514B 

List of suggested additional citations. These are papers that are important in the 'surrounding' of 
of this run, or papers that preceded the highly important papers. If you like your results we are grateful for a citation.

  1. Neese,F.
     The ORCA program system
     WIRES Comput. Molec. Sci., 2012 2(1)73-78
     doi.org/10.1002/wcms.81
  2. Neese,F.
     Software update: the ORCA program system, version 4.0
     WIRES Comput. Molec. Sci., 2018 8(1)1-6
     doi.org/10.1002/wcms.1327
  3. Neese,F.; Wennmohs,F.; Becker,U.; Riplinger,C.
     The ORCA quantum chemistry program package
     J. Chem. Phys., 2020 152 Art. No. L224108
     doi.org/10.1063/5.0004608

List of optional additional citations

  1. Neese,F.
     Approximate second-order SCF convergence for spin unrestricted wavefunctions
     Chem. Phys. Lett., 2000 325(1-3)93-98
     doi.org/10.1016/s0009-2614(00)00662-x

Timings for individual modules:

Sum of individual times          ...       30.638 sec (=   0.511 min)
Startup calculation              ...        3.345 sec (=   0.056 min)  10.9 %
SCF iterations                   ...       15.775 sec (=   0.263 min)  51.5 %
Property integrals               ...        4.862 sec (=   0.081 min)  15.9 %
SCF Response                     ...        2.305 sec (=   0.038 min)   7.5 %
Property calculations            ...        2.201 sec (=   0.037 min)   7.2 %
SCF Gradient evaluation          ...        2.117 sec (=   0.035 min)   6.9 %
Geometry relaxation              ...        0.032 sec (=   0.001 min)   0.1 %
                             ****ORCA TERMINATED NORMALLY****
TOTAL RUN TIME: 0 days 0 hours 0 minutes 44 seconds 530 msec
