
                                 *****************
                                 * O   R   C   A *
                                 *****************

                                            #,                                       
                                            ###                                      
                                            ####                                     
                                            #####                                    
                                            ######                                   
                                           ########,                                 
                                     ,,################,,,,,                         
                               ,,#################################,,                 
                          ,,##########################################,,             
                       ,#########################################, ''#####,          
                    ,#############################################,,   '####,        
                  ,##################################################,,,,####,       
                ,###########''''           ''''###############################       
              ,#####''   ,,,,##########,,,,          '''####'''          '####       
            ,##' ,,,,###########################,,,                        '##       
           ' ,,###''''                  '''############,,,                           
         ,,##''                                '''############,,,,        ,,,,,,###''
      ,#''                                            '''#######################'''  
     '                                                          ''''####''''         
             ,#######,   #######,   ,#######,      ##                                
            ,#'     '#,  ##    ##  ,#'     '#,    #''#        ,####,   ,####,        
            ##       ##  ##   ,#'  ##            #'  '#       #'       #'  '#        
            ##       ##  #######   ##           ,######,      #####,   #    #        
            '#,     ,#'  ##    ##  '#,     ,#' ,#      #,     #,   #   #,  ,#        
             '#######'   ##     ##  '#######'  #'      '#     '####' # '####'        



                #########################################################
                #                        -***-                          #
                #          Department of theory and spectroscopy        #
                #                                                       #
                #                      Frank Neese                      #
                #                                                       #
                #     Directorship, Architecture, Infrastructure        #
                #                    SHARK, DRIVERS                     #
                #        Core code/Algorithms in most modules           #
                #                                                       #
                #        Max Planck Institute fuer Kohlenforschung      #
                #                Kaiser Wilhelm Platz 1                 #
                #                 D-45470 Muelheim/Ruhr                 #
                #                      Germany                          #
                #                                                       #
                #                  All rights reserved                  #
                #                        -***-                          #
                #########################################################


                         Program Version 6.0.1  -  RELEASE   -


 With contributions from (in alphabetic order):
[Max-Planck-Institut fuer Kohlenforschung]                               
  Daniel Aravena         : Magnetic Suceptibility                        
  Michael Atanasov       : Ab Initio Ligand Field Theory (pilot matlab implementation)
  Alexander A. Auer      : GIAO ZORA, VPT2 properties, NMR spectrum      
  Ute Becker             : All parallelization in ORCA, NUMFREQ, NUMCALC 
  Giovanni Bistoni       : ED, misc. LED, open-shell LED, HFLD           
  Martin Brehm           : Molecular dynamics                            
  Dmytro Bykov           : pre 5.0 version of the SCF Hessian            
  Marcos Casanova-Páez   : Triplet and SCS-CIS(D). UHF-(DLPNO)-IP/EA/STEOM-CCSD. UHF-CVS-IP/STEOM-CCSD   
  Vijay G. Chilkuri      : MRCI spin determinant printing, contributions to CSF-ICE 
  Pauline Colinet        : FMM embedding                                 
  Dipayan Datta          : RHF DLPNO-CCSD density                        
  Achintya Kumar Dutta   : EOM-CC, STEOM-CC                              
  Nicolas Foglia         : Exact transition moments, OPA infrastructure, MCD improvements    
  Dmitry Ganyushin       : Spin-Orbit,Spin-Spin,Magnetic field MRCI      
  Miquel Garcia-Rates    : C-PCM and meta-GGA Hessian, CCSD/C-PCM, Gaussian charge scheme 
  Tiago L. C. Gouveia    : GS-ROHF, GS-ROCIS                             
  Yang Guo               : DLPNO-NEVPT2, F12-NEVPT2, CIM, IAO-localization        
  Andreas Hansen         : Spin unrestricted coupled pair/coupled cluster methods 
  Ingolf Harden          : AUTO-CI MPn and infrastructure                
  Benjamin Helmich-Paris : MC-RPA, TRAH-(SCF,CASSCF), AVAS, COSX integrals, SCF dyn. polar. 
  Lee Huntington         : MR-EOM, pCC                                   
  Robert Izsak           : Overlap fitted RIJCOSX, COSX-SCS-MP3, EOM     
  Riya Kayal             : Wick's Theorem for AUTO-CI, AUTO-CI UHF-CCSDT 
  Emily Kempfer          : AUTO-CI, RHF CISDT and CCSDT                  
  Christian Kollmar      : KDIIS, OOCD, Brueckner-CCSD(T), CCSD density, CASPT2, CASPT2-K, improved NEVPT2 
  Axel Koslowski         : Symmetry handling                             
  Simone Kossmann        : meta-GGA functionals, TD-DFT gradient, OOMP2, (MP2 Hessian; deprecated post 5.0) 
  Lucas Lang             : DCDCAS                                        
  Marvin Lechner         : AUTO-CI (C++ implementation), FIC-MRCC        
  Spencer Leger          : CASSCF response                               
  Dagmar Lenk            : GEPOL surface, SMD, ORCA-2-JSON               
  Dimitrios Liakos       : Extrapolation schemes; Compound Job, initial MDCI parallelization 
  Dimitrios Manganas     : Further ROCIS development; embedding schemes. LFT, Crystal Embedding 
  Dimitrios Pantazis     : SARC Basis sets                               
  Anastasios Papadopoulos: AUTO-CI, single reference methods and gradients 
  Taras Petrenko         : pre 6.0 DFT Hessian and TD-DFT gradient, (ASA, deprecated), ECA, 1-Electron XAS/XES, NRVS 
  Peter Pinski           : DLPNO-MP2, DLPNO-MP2 Gradient                 
  Christoph Reimann      : Effective Core Potentials                     
  Marius Retegan         : Local ZFS, SOC                                
  Christoph Riplinger    : Optimizer, TS searches, QM/MM, DLPNO-CCSD(T), (RO)-DLPNO pert. Triples 
  Michael Roemelt        : Original ROCIS implementation                 
  Masaaki Saitow         : Open-shell DLPNO-CCSD energy and density      
  Barbara Sandhoefer     : DKH picture change effects                    
  Kantharuban Sivalingam : CASSCF convergence/infrastructure, NEVPT2 and variants, FIC-MRCI 
  Bernardo de Souza      : ESD, SOC TD-DFT                               
  Georgi L. Stoychev     : AutoAux, RI-MP2 NMR, DLPNO-MP2 response, X2C  
  Van Anh Tran           : RI-MP2 g-tensors                              
  Willem Van den Heuvel  : Paramagnetic NMR                              
  Zikuan Wang            : NOTCH, Electric field optimization            
  Frank Wennmohs         : Technical directorship and infrastructure     
  Hang Xu                : AUTO-CI-Response properties                   
                                                                         
[FACCTs GmbH]                                                            
  Markus Bursch, Miquel Garcia-Rates, Christoph Riplinger, Bernardo de Souza, Georgi L. Stoychev 
                                                                 
  APM, Basis sets (HGBS, AHGBS, def-TZVP (Ac-Lr), def2-XVPD (La-Lu)), CI-OPT, improved COSX, DLPNO-Multilevel,           
  DOCKER, DRACO, updates on ESD, GOAT, IRC, LR-CPCM, MBIS, meta-GGA TD-DFT gradient, ML-optimized integration grids, 
  MM, NACMEs, nearIR, NEB, NEB-TS, NL-DFT gradient (VV10), 2- and 3-layer-ONIOM, interface openCOSMO-RS, QMMM,   
  Crystal-QMMM, SF, symmetry and pop. for TD-DFT, r2SCAN hybrids, SOLVATOR                                   
                                                                         
[Other institutions]                                                     
  V. Asgeirsson          : NEB                                           
  Christoph Bannwarth    : sTDA-DFT, sTD-DFT, PBEh-3c, B97-3c, D3        
  Sebastian Ehlert       : rSCAN, r2SCAN, r2SCAN-3c, D4, dhf basis sets  
  Marvin Friede          : D4 for Fr, Ra, Ac-Lr                          
  Lars Goerigk           : TD-DFT with DH, B97 family of functionals     
  Stefan Grimme          : VdW corrections, initial TS optimization, DFT functionals, gCP, sTDA/sTD-DF 
  Waldemar Hujo          : DFT-NL                                        
  H. Jonsson             : NEB                                           
  Holger Kruse           : gCP                                           
  Marcel Mueller         : wB97X-3c, vDZP basis set                      
  Hagen Neugebauer       : wr2SCAN                                       
  Tobias Risthaus        : range-separated hybrid DFT                    
  Lukas Wittmann         : regularized MP2, r2SCAN double-hybrids, wr2SCAN        
                                                                         
We gratefully acknowledge several colleagues who have allowed us to      
interface, adapt or use parts of their codes:                            
  Ed Valeev, F. Pavosevic, A. Kumar             : LibInt (2-el integral package), F12 methods 
  Garnet Chan, S. Sharma, J. Yang, R. Olivares  : DMRG                   
  Ulf Ekstrom                                   : XCFun DFT Library      
  Mihaly Kallay                                 : mrcc  (arbitrary order and MRCC methods)
  Frank Weinhold                                : gennbo (NPA and NBO analysis)           
  Simon Mueller                                 : openCOSMO-RS                            
  Christopher J. Cramer and Donald G. Truhlar   : smd solvation model                     
  S Lehtola, MJT Oliveira, MAL Marques          : LibXC Library                           
  Liviu Ungur et al                             : ANISO software                          


 Your calculation uses the libint2 library for the computation of 2-el integrals
 For citations please refer to: http://libint.valeyev.net

 Your ORCA version has been built with support for libXC version: 6.2.2
 For citations please refer to: https://libxc.gitlab.io

 This ORCA versions uses:
   CBLAS   interface :  Fast vector & matrix operations
   LAPACKE interface :  Fast linear algebra routines
   SCALAPACK package :  Parallel linear algebra routines
   Shared memory     :  Shared parallel matrices
   BLAS/LAPACK       :  OpenBLAS 0.3.27  USE64BITINT DYNAMIC_ARCH NO_AFFINITY Cooperlake SINGLE_THREADED
        Core in use  :  Cooperlake
   Copyright (c) 2011-2014, The OpenBLAS Project


NOTE: MaxCore=500 MB was set to SCF,MP2,MDCI,CIPSI,MRCI and CIS
      => If you want to overwrite this, your respective input block should be placed after the MaxCore statement


***************************************
The coordinates will be read from file: bond_sn2.xyz
***************************************


Your calculation utilizes the geometrical counterpoise correction gCP
Please cite in your paper:
H.Kruse, S. Grimme J.Chem.Phys., 136, (2012), 154101 
   

Your calculation utilizes the atom-pairwise dispersion correction
based on EEQ partial charges (D4)


================================================================================

----- Orbital basis set information -----
Your calculation utilizes the basis: def2-mTZVPP
   Stefan Grimme, Andreas Hansen, Sebastian Ehlert, and Jan-Michael Mewes 
   J. Chem. Phys. 154, 064103 (2021). DOI: 10.1063/5.0040021

----- AuxJ basis set information -----
Your calculation utilizes the basis: def2-mTZVPP/J
   Stefan Grimme, Andreas Hansen, Sebastian Ehlert, and Jan-Michael Mewes 
   J. Chem. Phys. 154, 000000 (2021). DOI: 10.1063/5.0040021

================================================================================
                                        WARNINGS
                       Please study these warnings very carefully!
================================================================================



WARNING: SCAN, rSCAN, or r2SCAN functional requested.
  ===> : libXC variant has now been activated.



WARNING: Geometry Optimization
  ===> : Switching off AutoStart
         For restart on a previous wavefunction, please use MOREAD

================================================================================
                                       INPUT FILE
================================================================================
NAME = /scratch/hbxr153/tmp/965679/bond_sn2.inp
|  1> ! r2scan-3c optTS freq xyzfile
|  2> %pal nprocs 4 end
|  3> %maxcore 500
|  4> %geom 
|  5>     Calc_Hess true
|  6> end
|  7> * xyzfile -1 1 bond_sn2.xyz
|  8>             
|  9> 
| 10>                          ****END OF INPUT****
================================================================================

                       *****************************
                       * Geometry Optimization Run *
                       *****************************

Geometry optimization settings:
Update method            Update   .... Bofill
Choice of coordinates    CoordSys .... (2022) Redundant Internals
Initial Hessian          InHess   .... Almloef's Model
Max. no of cycles        MaxIter  .... 50

Convergence Tolerances:
Energy Change            TolE     ....  5.0000e-06 Eh
Max. Gradient            TolMAXG  ....  3.0000e-04 Eh/bohr
RMS Gradient             TolRMSG  ....  1.0000e-04 Eh/bohr
Max. Displacement        TolMAXD  ....  4.0000e-03 bohr
RMS Displacement         TolRMSD  ....  2.0000e-03 bohr
Strict Convergence                .... False

------------------------------------------------------------------------------
                        ORCA OPTIMIZATION COORDINATE SETUP
------------------------------------------------------------------------------

The optimization will be done in redundant internal coordinates (2022)
Making redundant internal coordinates   ...  (2022 redundants) done
Following TS mode number                ...     0
Evaluating the initial hessian          ...  (Is done on the fly) done
Evaluating the coordinates              ...  done
Calculating the B-matrix                .... done
Calculating the G-matrix                .... done
Diagonalizing the G-matrix              .... done
The first mode is                       ....    2
The number of degrees of freedom        ....   12

    -----------------------------------------------------------------
                    Redundant Internal Coordinates


    -----------------------------------------------------------------
         Definition                    Initial Value    d2E/dq (diagonal element)
    -----------------------------------------------------------------
      1. B(H   1,C   0)                  1.0700         0.000000   
      2. B(H   2,C   0)                  1.0700         0.000000   
      3. B(H   3,C   0)                  1.0700         0.000000   
      4. B(F   4,C   0)                  1.7170         0.000000   
      5. B(Cl  5,C   0)                  1.9525         0.000000   
      6. A(H   1,C   0,H   3)          120.0001         0.000000   
      7. A(H   2,C   0,H   3)          120.0001         0.000000   
      8. A(H   1,C   0,F   4)           90.0001         0.000000   
      9. A(H   2,C   0,F   4)           90.0000         0.000000   
     10. A(H   3,C   0,F   4)           89.9999         0.000000   
     11. A(H   1,C   0,Cl  5)           90.0001         0.000000   
     12. A(H   2,C   0,Cl  5)           90.0000         0.000000   
     13. A(H   3,C   0,Cl  5)           89.9999         0.000000   
     14. A(H   1,C   0,H   2)          119.9998         0.000000   
    -----------------------------------------------------------------

Number of atoms                         .... 6
Number of degrees of freedom            .... 14


         *************************************************************
         *                GEOMETRY OPTIMIZATION CYCLE   1            *
         *************************************************************
---------------------------------
CARTESIAN COORDINATES (ANGSTROEM)
---------------------------------
  C     -1.328840   -1.572512   -0.012251
  H     -1.345602   -2.523660    0.477584
  H     -2.217766   -0.978721   -0.058313
  H     -0.423155   -1.215159   -0.456022
  F     -0.901026   -0.817147    1.469129
  Cl    -1.815325   -2.431478   -1.696818

----------------------------
CARTESIAN COORDINATES (A.U.)
----------------------------
  NO LB      ZA    FRAG     MASS         X           Y           Z
   0 C     6.0000    0    12.011   -2.511144   -2.971618   -0.023151
   1 H     1.0000    0     1.008   -2.542819   -4.769025    0.902503
   2 H     1.0000    0     1.008   -4.190971   -1.849515   -0.110196
   3 H     1.0000    0     1.008   -0.799646   -2.296317   -0.861756
   4 F     9.0000    0    18.998   -1.702692   -1.544185    2.776252
   5 Cl   17.0000    0    35.453   -3.430468   -4.594827   -3.206522

--------------------------------
INTERNAL COORDINATES (ANGSTROEM)
--------------------------------
 C      0   0   0     0.000000000000     0.00000000     0.00000000
 H      1   0   0     1.069999987213     0.00000000     0.00000000
 H      1   2   0     1.069999997694   119.99977245     0.00000000
 H      1   2   3     1.070000004818   120.00008128   179.99999669
 F      1   2   3     1.717000000805    90.00008055    90.00010086
 Cl     1   2   3     1.952499999305    90.00007775   269.99990242

---------------------------
INTERNAL COORDINATES (A.U.)
---------------------------
 C      0   0   0     0.000000000000     0.00000000     0.00000000
 H      1   0   0     2.022006939132     0.00000000     0.00000000
 H      1   2   0     2.022006958939   119.99977245     0.00000000
 H      1   2   3     2.022006972400   120.00008128   179.99999669
 F      1   2   3     3.244659773464    90.00008055    90.00010086
 Cl     1   2   3     3.689690275168    90.00007775   269.99990242

---------------------
BASIS SET INFORMATION
---------------------
There are 4 groups of distinct atoms

 Group   1 Type C   : 11s6p1d contracted to 5s3p1d pattern {62111/411/1}
 Group   2 Type H   : 4s1p contracted to 2s1p pattern {31/1}
 Group   3 Type F   : 11s6p2d contracted to 5s3p2d pattern {62111/411/11}
 Group   4 Type Cl  : 14s9p2d contracted to 5s4p2d pattern {73211/6111/11}

Atom   0C    basis set group =>   1
Atom   1H    basis set group =>   2
Atom   2H    basis set group =>   2
Atom   3H    basis set group =>   2
Atom   4F    basis set group =>   3
Atom   5Cl   basis set group =>   4
---------------------------------
AUXILIARY/J BASIS SET INFORMATION
---------------------------------
There are 4 groups of distinct atoms

 Group   1 Type C   : 8s3p3d contracted to 6s3p3d pattern {311111/111/111}
 Group   2 Type H   : 5s2p1d contracted to 3s1p1d pattern {311/2/1}
 Group   3 Type F   : 8s3p4d contracted to 6s3p4d pattern {311111/111/1111}
 Group   4 Type Cl  : 14s5p5d2f contracted to 8s4p3d1f pattern {71111111/2111/311/2}

Atom   0C    basis set group =>   1
Atom   1H    basis set group =>   2
Atom   2H    basis set group =>   2
Atom   3H    basis set group =>   2
Atom   4F    basis set group =>   3
Atom   5Cl   basis set group =>   4


           ************************************************************
           *        Program running with 4 parallel MPI-processes     *
           *              working on a common directory               *
           ************************************************************
------------------------------------------------------------------------------
                             ORCA STARTUP CALCULATIONS
                           -- RI-GTO INTEGRALS CHOSEN --
------------------------------------------------------------------------------
------------------------------------------------------------------------------
                   ___                                                        
                  /   \      - P O W E R E D   B Y -                         
                 /     \                                                     
                 |  |  |   _    _      __       _____    __    __             
                 |  |  |  | |  | |    /  \     |  _  \  |  |  /  |          
                  \  \/   | |  | |   /    \    | | | |  |  | /  /          
                 / \  \   | |__| |  /  /\  \   | |_| |  |  |/  /          
                |  |  |   |  __  | /  /__\  \  |    /   |      \           
                |  |  |   | |  | | |   __   |  |    \   |  |\   \          
                \     /   | |  | | |  |  |  |  | |\  \  |  | \   \       
                 \___/    |_|  |_| |__|  |__|  |_| \__\ |__|  \__/        
                                                                              
                      - O R C A' S   B I G   F R I E N D -                    
                                      &                                       
                       - I N T E G R A L  F E E D E R -                       
                                                                              
 v1 FN, 2020, v2 2021, v3 2022-2024                                           
------------------------------------------------------------------------------


----------------------
SHARK INTEGRAL PACKAGE
----------------------

Number of atoms                             ...      6
Number of basis functions                   ...     85
Number of shells                            ...     39
Maximum angular momentum                    ...      2
Integral batch strategy                     ... SHARK/LIBINT Hybrid
RI-J (if used) integral strategy            ... SPLIT-RIJ (Revised 2003 algorithm where possible)
Printlevel                                  ...      1
Contraction scheme used                     ... SEGMENTED contraction
Prescreening option                         ... SCHWARTZ
   Thresh                                   ... 2.500e-11
   Tcut                                     ... 2.500e-12
   Tpresel                                  ... 2.500e-12 
Coulomb Range Separation                    ... NOT USED
Exchange Range Separation                   ... NOT USED
Multipole approximations                    ... NOT USED
Finite Nucleus Model                        ... NOT USED
CABS basis                                  ... NOT available
Auxiliary Coulomb fitting basis             ... AVAILABLE
   # of basis functions in Aux-J            ...    140
   # of shells in Aux-J                     ...     56
   Maximum angular momentum in Aux-J        ...      3
Auxiliary J/K fitting basis                 ... NOT available
Auxiliary Correlation fitting basis         ... NOT available
Auxiliary 'external' fitting basis          ... NOT available

Checking pre-screening integrals            ... done (  0.0 sec) Dimension = 39
Check shell pair data                       ... done (  0.0 sec)
Shell pair information
Shell pair cut-off parameter TPreSel        ...   2.5e-12
Total number of shell pairs                 ...       780
Shell pairs after pre-screening             ...       742
Total number of primitive shell pairs       ...      3096
Primitive shell pairs kept                  ...      2327
          la=0 lb=0:    213 shell pairs
          la=1 lb=0:    261 shell pairs
          la=1 lb=1:     89 shell pairs
          la=2 lb=0:    100 shell pairs
          la=2 lb=1:     64 shell pairs
          la=2 lb=2:     15 shell pairs

Calculating one electron integrals          ... done (  0.0 sec)
done (  0.0 sec)
Calculating Nuclear repulsion               ... done (  0.0 sec) ENN=     95.293783043246 Eh

Diagonalization of the overlap matrix:
Smallest eigenvalue                        ... 6.282e-03
Time for diagonalization                   ...    0.001 sec
Threshold for overlap eigenvalues          ... 1.000e-07
Number of eigenvalues below threshold      ... 0
Time for construction of square roots      ...    0.002 sec
Total time needed                          ...    0.008 sec

-------------------
DFT GRID GENERATION
-------------------

General Integration Accuracy     IntAcc      ... 4.388
Radial Grid Type                 RadialGrid  ... OptM3 with GC (2021)
Angular Grid (max. ang.)         AngularGrid ... 4 (Lebedev-302)
Angular grid pruning method      GridPruning ... 4 (adaptive)
Weight generation scheme         WeightScheme... mBecke (2022)
Basis function cutoff            BFCut       ... 1.0000e-11
Integration weight cutoff        WCut        ... 1.0000e-14
Partially contracted basis set               ... off
Rotationally invariant grid construction     ... off
Angular grids for H and He will be reduced by one unit

Total number of grid points                  ...    29399
Total number of batches                      ...      462
Average number of points per batch           ...       63
Average number of grid points per atom       ...     4900
Initializing property integral containers    ... done (  0.0 sec)

SHARK setup successfully completed in   0.2 seconds

Maximum memory used throughout the entire STARTUP-calculation: 10.2 MB


           ************************************************************
           *        Program running with 4 parallel MPI-processes     *
           *              working on a common directory               *
           ************************************************************
-------------------------------------------------------------------------------
                                 ORCA GUESS
                   Start orbitals & Density for SCF / CASSCF
-------------------------------------------------------------------------------

------------
SCF SETTINGS
------------
Hamiltonian:
 Density Functional     Method          .... DFT(GTOs)
  Functional kind                       .... Exchange
  Functional name                       .... Re-regularized SCAN exchange by Furness et al
  Functional family                     .... MGGA
  Functional refs                              
    [ 0] J. W. Furness, A. D. Kaplan, J. Ning, J. P. Perdew, and J. Sun.,  J. Phys. Chem. Lett. 11, 8208-8215 (2020), doi: 10.1021/acs.jpclett.0c02405
    [ 1] J. W. Furness, A. D. Kaplan, J. Ning, J. P. Perdew, and J. Sun.,  J. Phys. Chem. Lett. 11, 9248-9248 (2020), doi: 10.1021/acs.jpclett.0c03077
  Functional external parameters        .... 6
    Parameter  0 _c1        =  6.670000e-01 : c1 parameter        
    Parameter  1 _c2        =  8.000000e-01 : c2 parameter        
    Parameter  2 _d         =  1.240000e+00 : d parameter         
    Parameter  3 _k1        =  6.500000e-02 : k1 parameter        
    Parameter  4 _eta       =  1.000000e-03 : eta parameter       
    Parameter  5 _dp2       =  3.610000e-01 : dp2 parameter       
  Functional kind                       .... Correlation
  Functional name                       .... Re-regularized SCAN correlation by Furness et al
  Functional family                     .... MGGA
  Functional refs                              
    [ 0] J. W. Furness, A. D. Kaplan, J. Ning, J. P. Perdew, and J. Sun.,  J. Phys. Chem. Lett. 11, 8208-8215 (2020), doi: 10.1021/acs.jpclett.0c02405
    [ 1] J. W. Furness, A. D. Kaplan, J. Ning, J. P. Perdew, and J. Sun.,  J. Phys. Chem. Lett. 11, 9248-9248 (2020), doi: 10.1021/acs.jpclett.0c03077
  Functional external parameters        .... 1
    Parameter  0 _eta       =  1.000000e-03 : Regularization parameter
 Gradients option       PostSCFGGA      .... off
 RI-approximation to the Coulomb term is turned on
   Number of AuxJ basis functions       .... 140


General Settings:
 Integral files         IntName         .... /scratch/hbxr153/tmp/965679/bond_sn2
 Hartree-Fock type      HFTyp           .... RHF
 Total Charge           Charge          ....   -1
 Multiplicity           Mult            ....    1
 Number of Electrons    NEL             ....   36
 Basis Dimension        Dim             ....   85
 Nuclear Repulsion      ENuc            ....     95.2937830432 Eh

Convergence Acceleration:
 AO-DIIS                CNVDIIS         .... on
   Start iteration      DIISMaxIt       ....    12
   Startup error        DIISStart       ....  0.200000
   # of expansion vecs  DIISMaxEq       ....     5
   Bias factor          DIISBfac        ....   1.050
   Max. coefficient     DIISMaxC        ....  10.000
 MO-DIIS                CNVKDIIS        .... off
 Trust-Rad. Augm. Hess. CNVTRAH         .... auto
   Auto Start mean grad. ratio tolernc. ....  1.125000
   Auto Start start iteration           ....    50
   Auto Start num. interpolation iter.  ....    10
   Max. Number of Micro iterations      ....    24
   Max. Number of Macro iterations      .... Maxiter - #DIIS iter
   Number of Davidson start vectors     ....     2
   Converg. threshold    (grad. norm)   ....   1.000e-05
   Grad. Scal. Fac. for Micro threshold ....   0.100
   Minimum threshold for Micro iter.    ....   1.000e-02
   NR start threshold (gradient norm)   ....   1.000e-04
   Initial trust radius                 ....   0.400
   Minimum AH scaling param. (alpha)    ....   1.000
   Maximum AH scaling param. (alpha)    .... 1000.000
   Quad. conv. algorithm                .... NR
   White noise on init. David. guess    .... on
   Maximum white noise                  ....   0.010
   Pseudo random numbers                .... off
   Inactive MOs                         .... canonical
   Orbital update algorithm             .... Taylor
   Preconditioner                       .... Diag
   Full preconditioner red. dimension   ....   250
   COSX micro iterations for RIJONX calc.... off
 SOSCF                  CNVSOSCF        .... on
   Start iteration      SOSCFMaxIt      ....   150
   Startup grad/error   SOSCFStart      ....  0.003300
   Hessian update       SOSCFHessUp     .... L-BFGS
 Level Shifting         CNVShift        .... on
   Level shift para.    LevelShift      ....    0.2500
   Turn off err/grad.   ShiftErr        ....    0.0010
 Zerner damping         CNVZerner       .... off
 Static damping         CNVDamp         .... on
   Fraction old density DampFac         ....    0.7000
   Max. Damping (<1)    DampMax         ....    0.9800
   Min. Damping (>=0)   DampMin         ....    0.0000
   Turn off err/grad.   DampErr         ....    0.1000

SCF Procedure:
 Maximum # iterations   MaxIter         ....   125
 SCF integral mode      SCFMode         .... Direct
   Integral package                     .... SHARK and LIBINT hybrid scheme
 Reset frequency        DirectResetFreq ....    20
 Integral Threshold     Thresh          ....  2.500e-11 Eh
 Primitive CutOff       TCut            ....  2.500e-12 Eh

Convergence Tolerance:
 Convergence Check Mode ConvCheckMode   .... Total+1el-Energy
 Convergence forced     ConvForced      .... 0
 Energy Change          TolE            ....  1.000e-08 Eh
 1-El. energy change                    ....  1.000e-05 Eh
 Orbital Gradient       TolG            ....  1.000e-05
 Orbital Rotation angle TolX            ....  1.000e-05
 DIIS Error             TolErr          ....  5.000e-07

------------------------------
INITIAL GUESS: MODEL POTENTIAL
------------------------------
Loading Hartree-Fock densities                     ... done
Calculating cut-offs                               ... done
Initializing the effective Hamiltonian             ... done
Setting up the integral package (SHARK)            ... done
done (   0.0 sec)
Making the grid                                    ... done (   0.0 sec)
Mapping shells                                     ... done
Starting the XC term evaluation                    ... done (   0.0 sec)
  promolecular density results
     # of electrons  =     34.999276396
     EX              =    -43.315450493
     EC              =     -1.255516824
     EX+EC           =    -44.570967317
Transforming the Hamiltonian                       ... done (   0.0 sec)
done (   0.0 sec)
Back transforming the eigenvectors                 ... done (   0.0 sec)
done
                      ------------------
                      INITIAL GUESS DONE (   0.1 sec)
                      ------------------
             **** ENERGY FILE WAS UPDATED (/scratch/hbxr153/tmp/965679/bond_sn2.en.tmp) ****
Finished Guess after   0.2 sec
Maximum memory used throughout the entire GUESS-calculation: 5.6 MB


           ************************************************************
           *        Program running with 4 parallel MPI-processes     *
           *              working on a common directory               *
           ************************************************************

-------------------------------------------------------------------------------------------
                                      ORCA LEAN-SCF
                              memory conserving SCF solver
-------------------------------------------------------------------------------------------

----------------------------------------D-I-I-S--------------------------------------------
Iteration    Energy (Eh)           Delta-E    RMSDP     MaxDP     DIISErr   Damp  Time(sec)
-------------------------------------------------------------------------------------------
               ***  Starting incremental Fock matrix formation  ***
    1    -599.7979297122291200     0.00e+00  4.35e-03  6.05e-02  2.96e-01  0.700   0.2
    2    -599.8567453239120368    -5.88e-02  3.19e-03  4.80e-02  9.73e-02  0.700   0.2
                               ***Turning on AO-DIIS***
    3    -599.8771121609787542    -2.04e-02  1.63e-03  2.75e-02  3.90e-02  0.700   0.2
    4    -599.8902488767902241    -1.31e-02  2.87e-03  4.40e-02  2.10e-02  0.000   0.2
    5    -599.9199929197777692    -2.97e-02  6.58e-04  1.26e-02  9.17e-03  0.000   0.2
                              *** Initializing SOSCF ***
---------------------------------------S-O-S-C-F--------------------------------------
Iteration    Energy (Eh)           Delta-E    RMSDP     MaxDP     MaxGrad    Time(sec)
--------------------------------------------------------------------------------------
    6    -599.9203023459704127    -3.09e-04  2.03e-04  4.37e-03  2.14e-03     0.2
               *** Restarting incremental Fock matrix formation ***
    7    -599.9203223667464044    -2.00e-05  1.69e-04  4.00e-03  3.21e-04     0.1
    8    -599.9203231745389076    -8.08e-07  3.41e-05  8.79e-04  2.40e-04     0.1
    9    -599.9203244351745070    -1.26e-06  1.99e-05  4.08e-04  9.47e-05     0.1
   10    -599.9203243606286833     7.45e-08  9.79e-06  2.03e-04  8.45e-05     0.1
   11    -599.9203245160138067    -1.55e-07  5.68e-06  1.02e-04  1.94e-05     0.1
   12    -599.9203245151743431     8.39e-10  1.89e-06  2.56e-05  1.55e-05     0.1
                 **** Energy Check signals convergence ****

               *****************************************************
               *                     SUCCESS                       *
               *           SCF CONVERGED AFTER  12 CYCLES          *
               *****************************************************

             **** ENERGY FILE WAS UPDATED (/scratch/hbxr153/tmp/965679/bond_sn2.en.tmp) ****

----------------
TOTAL SCF ENERGY
----------------

Total Energy       :       -599.92032451517434 Eh          -16324.66196 eV

Components:
Nuclear Repulsion  :         95.29378304324635 Eh            2593.07567 eV
Electronic Energy  :       -695.21410755842066 Eh          -18917.73763 eV
One Electron Energy:      -1027.06123158999139 Eh          -27947.75695 eV
Two Electron Energy:        331.84712403157079 Eh            9030.01932 eV

Virial components:
Potential Energy   :      -1198.79411929351841 Eh          -32620.84640 eV
Kinetic Energy     :        598.87379477834406 Eh           16296.18444 eV
Virial Ratio       :          2.00174749629380

DFT components:
N(Alpha)           :       18.000011095076 electrons
N(Beta)            :       18.000011095076 electrons
N(Total)           :       36.000022190151 electrons
E(X)               :      -44.188633019618 Eh       
E(C)               :       -1.272576480287 Eh       
E(XC)              :      -45.461209499906 Eh       

---------------
SCF CONVERGENCE
---------------

  Last Energy change         ...   -8.3946e-10  Tolerance :   1.0000e-08
  Last MAX-Density change    ...    2.5582e-05  Tolerance :   1.0000e-07
  Last RMS-Density change    ...    1.8947e-06  Tolerance :   5.0000e-09
  Last DIIS Error            ...    2.1372e-03  Tolerance :   5.0000e-07
  Last Orbital Gradient      ...    1.5455e-05  Tolerance :   1.0000e-05
  Last Orbital Rotation      ...    2.0857e-05  Tolerance :   1.0000e-05


----------------
ORBITAL ENERGIES
----------------

  NO   OCC          E(Eh)            E(eV) 
   0   2.0000    -100.944081     -2746.8281 
   1   2.0000     -24.139135      -656.8593 
   2   2.0000      -9.878003      -268.7941 
   3   2.0000      -9.103674      -247.7236 
   4   2.0000      -6.846007      -186.2893 
   5   2.0000      -6.841320      -186.1618 
   6   2.0000      -6.841319      -186.1618 
   7   2.0000      -0.791676       -21.5426 
   8   2.0000      -0.561540       -15.2803 
   9   2.0000      -0.417116       -11.3503 
  10   2.0000      -0.221563        -6.0290 
  11   2.0000      -0.221562        -6.0290 
  12   2.0000      -0.154922        -4.2156 
  13   2.0000      -0.060862        -1.6561 
  14   2.0000      -0.060860        -1.6561 
  15   2.0000      -0.030235        -0.8227 
  16   2.0000      -0.030233        -0.8227 
  17   2.0000      -0.018028        -0.4906 
  18   0.0000       0.247477         6.7342 
  19   0.0000       0.293367         7.9829 
  20   0.0000       0.361555         9.8384 
  21   0.0000       0.361569         9.8388 
  22   0.0000       0.392895        10.6912 
  23   0.0000       0.392899        10.6913 
  24   0.0000       0.412112        11.2141 
  25   0.0000       0.473040        12.8721 
  26   0.0000       0.575070        15.6485 
  27   0.0000       0.575073        15.6485 
  28   0.0000       0.604063        16.4374 
*Only the first 10 virtual orbitals were printed.

                    ********************************
                    * MULLIKEN POPULATION ANALYSIS *
                    ********************************

-----------------------
MULLIKEN ATOMIC CHARGES
-----------------------
   0 C :   -0.177135
   1 H :    0.145209
   2 H :    0.145203
   3 H :    0.145185
   4 F :   -0.637533
   5 Cl:   -0.620929
Sum of atomic charges:   -1.0000000

--------------------------------
MULLIKEN REDUCED ORBITAL CHARGES
--------------------------------
  0 C s       :     3.325729  s :     3.325729
      pz      :     0.738597  p :     2.805700
      px      :     1.064994
      py      :     1.002108
      dz2     :     0.012923  d :     0.045706
      dxz     :     0.008163
      dyz     :     0.013860
      dx2y2   :     0.005649
      dxy     :     0.005111

  1 H s       :     0.835440  s :     0.835440
      pz      :     0.006113  p :     0.019350
      px      :     0.003287
      py      :     0.009950

  2 H s       :     0.835447  s :     0.835447
      pz      :     0.003995  p :     0.019351
      px      :     0.009088
      py      :     0.006268

  3 H s       :     0.835464  s :     0.835464
      pz      :     0.005221  p :     0.019351
      px      :     0.009630
      py      :     0.004500

  4 F s       :     3.952207  s :     3.952207
      pz      :     1.788925  p :     5.684396
      px      :     1.964663
      py      :     1.930808
      dz2     :     0.000417  d :     0.000929
      dxz     :    -0.000011
      dyz     :     0.000601
      dx2y2   :    -0.000037
      dxy     :    -0.000040

  5 Cls       :     5.927819  s :     5.927819
      pz      :     3.748665  p :    11.653434
      px      :     3.974102
      py      :     3.930668
      dz2     :     0.012780  d :     0.039676
      dxz     :     0.008602
      dyz     :     0.011809
      dx2y2   :     0.002306
      dxy     :     0.004179



                     *******************************
                     * LOEWDIN POPULATION ANALYSIS *
                     *******************************

----------------------
LOEWDIN ATOMIC CHARGES
----------------------
   0 C :   -0.276060
   1 H :    0.147995
   2 H :    0.147994
   3 H :    0.147990
   4 F :   -0.718285
   5 Cl:   -0.449635

-------------------------------
LOEWDIN REDUCED ORBITAL CHARGES
-------------------------------
  0 C s       :     3.031084  s :     3.031084
      pz      :     0.906195  p :     3.131830
      px      :     1.134844
      py      :     1.090791
      dz2     :     0.031538  d :     0.113146
      dxz     :     0.018712
      dyz     :     0.035175
      dx2y2   :     0.014123
      dxy     :     0.013598

  1 H s       :     0.807315  s :     0.807315
      pz      :     0.013891  p :     0.044690
      px      :     0.007289
      py      :     0.023510

  2 H s       :     0.807317  s :     0.807317
      pz      :     0.008464  p :     0.044690
      px      :     0.021561
      py      :     0.014664

  3 H s       :     0.807320  s :     0.807320
      pz      :     0.011364  p :     0.044690
      px      :     0.023079
      py      :     0.010246

  4 F s       :     3.892969  s :     3.892969
      pz      :     1.816217  p :     5.723915
      px      :     1.968522
      py      :     1.939176
      dz2     :     0.032726  d :     0.101401
      dxz     :     0.025811
      dyz     :     0.027927
      dx2y2   :     0.009922
      dxy     :     0.005014

  5 Cls       :     5.772948  s :     5.772948
      pz      :     3.721378  p :    11.582811
      px      :     3.953034
      py      :     3.908400
      dz2     :     0.031254  d :     0.093876
      dxz     :     0.018667
      dyz     :     0.030538
      dx2y2   :     0.004484
      dxy     :     0.008933



                      *****************************
                      * MAYER POPULATION ANALYSIS *
                      *****************************

  NA   - Mulliken gross atomic population
  ZA   - Total nuclear charge
  QA   - Mulliken gross atomic charge
  VA   - Mayer's total valence
  BVA  - Mayer's bonded valence
  FA   - Mayer's free valence

  ATOM       NA         ZA         QA         VA         BVA        FA
  0 C      6.1771     6.0000    -0.1771     3.9082     3.9082    -0.0000
  1 H      0.8548     1.0000     0.1452     0.9497     0.9497    -0.0000
  2 H      0.8548     1.0000     0.1452     0.9497     0.9497    -0.0000
  3 H      0.8548     1.0000     0.1452     0.9497     0.9497    -0.0000
  4 F      9.6375     9.0000    -0.6375     0.3891     0.3891     0.0000
  5 Cl    17.6209    17.0000    -0.6209     0.5946     0.5946    -0.0000

  Mayer bond orders larger than 0.100000
B(  0-C ,  1-H ) :   0.9825 B(  0-C ,  2-H ) :   0.9825 B(  0-C ,  3-H ) :   0.9825 
B(  0-C ,  4-F ) :   0.3907 B(  0-C ,  5-Cl) :   0.5701 

-------
TIMINGS
-------

Total SCF time: 0 days 0 hours 0 min 1 sec 

Total time                  ....       1.918 sec
Sum of individual times     ....       1.891 sec  ( 98.6%)

SCF preparation             ....       0.079 sec  (  4.1%)
Fock matrix formation       ....       1.119 sec  ( 58.3%)
  Startup                   ....       0.050 sec  (  4.4% of F)
  Split-RI-J                ....       0.149 sec  ( 13.3% of F)
  XC integration            ....       0.689 sec  ( 61.6% of F)
    XC Preparation          ....       0.000 sec  (  0.0% of XC)
    Basis function eval.    ....       0.092 sec  ( 13.3% of XC)
    Density eval.           ....       0.113 sec  ( 16.5% of XC)
    XC-Functional eval.     ....       0.131 sec  ( 19.0% of XC)
    XC-Potential eval.      ....       0.162 sec  ( 23.4% of XC)
Diagonalization             ....       0.000 sec  (  0.0%)
Density matrix formation    ....       0.064 sec  (  3.3%)
Total Energy calculation    ....       0.089 sec  (  4.6%)
Population analysis         ....       0.039 sec  (  2.0%)
Orbital Transformation      ....       0.047 sec  (  2.5%)
Orbital Orthonormalization  ....       0.000 sec  (  0.0%)
DIIS solution               ....       0.299 sec  ( 15.6%)
SOSCF solution              ....       0.156 sec  (  8.1%)
Finished LeanSCF after   1.9 sec

Maximum memory used throughout the entire LEANSCF-calculation: 6.8 MB


           ************************************************************
           *        Program running with 4 parallel MPI-processes     *
           *              working on a common directory               *
           ************************************************************

------------------------------------------------------------------------------
                         ORCA PROPERTY INTEGRAL CALCULATIONS
------------------------------------------------------------------------------

GBWName                                   ... /scratch/hbxr153/tmp/965679/bond_sn2.gbw
Number of atoms                           ...      6
Number of basis functions                 ...     85
Max core memory                           ...    500 MB

Dipole integrals                          ... YES
Quadrupole integrals                      ...  NO
Linear momentum integrals                 ...  NO
Angular momentum integrals                ...  NO
Higher moments length integrals           ...  NO
Higher moments velocity integrals         ...  NO
Kinetic energy integrals                  ...  NO
GIAO right hand sides                     ...  NO
GIAO dipole derivative integrals          ...  NO
SOC integrals                             ...  NO
EPR diamagnetic integrals (GIAO)          ...  NO
EPR gauge integrals                       ...  NO
Field gradient integrals                  ...  NO (   0 nuclei)
Spin-dipole/Fermi contact integrals       ...  NO (   0 nuclei)
Contact density integrals                 ...  NO (   0 nuclei)
Nucleus-orbit integrals                   ...  NO (   0 nuclei)
Geometric perturbations                   ...  NO (   6 nuclei)

Choice of electric origin   ... Center of mass
Position of electric origin ... ( -2.7592, -3.4095, -0.8820) 
Choice of magnetic origin   ... GIAO
Position of magnetic origin ... (  0.0000,  0.0000,  0.0000) 

Calculating integrals                     ... Electric Dipole (Length)     done (  0.0 sec)

Property integrals calculated in   0.0 sec

Maximum memory used throughout the entire PROPINT-calculation: 5.5 MB


-------------------------------------------------------------------------------
                          DFT DISPERSION CORRECTION                            
                                                                               
                                DFTD4 V3.4.0                                   
-------------------------------------------------------------------------------
The R2SCAN3C composite method is recognized
Using three-body term ABC
Active option DFTDOPT                   ...         5   

-------------------------   ----------------
Dispersion correction           -0.000852805
-------------------------   ----------------

------------------   -----------------
gCP correction             0.009154540
------------------   -----------------

-------------------------   --------------------
FINAL SINGLE POINT ENERGY      -599.912022780759
-------------------------   --------------------



           ************************************************************
           *        Program running with 4 parallel MPI-processes     *
           *              working on a common directory               *
           ************************************************************
------------------------------------------------------------------------------
                         ORCA SCF GRADIENT CALCULATION
------------------------------------------------------------------------------

Nuc. rep. gradient        (SHARK) ... done (  0.0 sec)
HCore & Overlap gradient  (SHARK) ... done (  0.0 sec)
done (  0.1 sec)
XC gradient                       ... done (  0.1 sec)
Dispersion correction             ... done (  0.0 sec)

-------------------
DISPERSION GRADIENT
-------------------

   1   C   :    0.000002836    0.000005008    0.000009821
   2   H   :    0.000000913    0.000006145    0.000000466
   3   H   :    0.000005204   -0.000001455    0.000003102
   4   H   :   -0.000003625   -0.000000292    0.000005059
   5   F   :    0.000003981    0.000007030    0.000013786
   6   Cl  :   -0.000009309   -0.000016436   -0.000032233

Difference to translation invariance:
           :   -0.0000000000   -0.0000000000    0.0000000000

Difference to rotation invariance:
           :    0.0000000000    0.0000000000    0.0000000000

Norm of the Dispersion gradient    ...    0.0000435557
RMS gradient                       ...    0.0000102662
MAX gradient                       ...    0.0000322332
gCP correction                   ... done

------------------
CARTESIAN GRADIENT
------------------

   1   C   :   -0.008202743   -0.014487266   -0.028384416
   2   H   :   -0.001800267    0.002142812   -0.009420484
   3   H   :    0.003252783   -0.006808558   -0.006316201
   4   H   :   -0.007145505   -0.005430525   -0.004027165
   5   F   :   -0.009563419   -0.016840636   -0.033081201
   6   Cl  :    0.023459152    0.041424173    0.081229467

Difference to translation invariance:
           :   -0.0000000000   -0.0000000000    0.0000000000

Difference to rotation invariance:
           :   -0.0000661621   -0.0000036471    0.0000477790

Norm of the Cartesian gradient     ...    0.1081987499
RMS gradient                       ...    0.0255026899
MAX gradient                       ...    0.0812294668

-------
TIMINGS
-------

Total SCF gradient time     ....        0.278 sec

Densities                   ....       0.000 sec  (  0.0%)
One electron gradient       ....       0.008 sec  (  2.9%)
RI-J Coulomb gradient       ....       0.089 sec  ( 32.0%)
XC gradient                 ....       0.133 sec  ( 47.9%)

Maximum memory used throughout the entire SCFGRAD-calculation: 25.2 MB


           ************************************************************
           *        Program running with 4 parallel MPI-processes     *
           *              working on a common directory               *
           ************************************************************

------------------------------------------------------------------------------
                         ORCA PROPERTY INTEGRAL CALCULATIONS
------------------------------------------------------------------------------

GBWName                                   ... /scratch/hbxr153/tmp/965679/bond_sn2.gbw
Number of atoms                           ...      6
Number of basis functions                 ...     85
Max core memory                           ...    500 MB

Dipole integrals                          ...  NO
Quadrupole integrals                      ...  NO
Linear momentum integrals                 ...  NO
Angular momentum integrals                ...  NO
Higher moments length integrals           ...  NO
Higher moments velocity integrals         ...  NO
Kinetic energy integrals                  ...  NO
GIAO right hand sides                     ...  NO
GIAO dipole derivative integrals          ...  NO
SOC integrals                             ...  NO
EPR diamagnetic integrals (GIAO)          ...  NO
EPR gauge integrals                       ...  NO
Field gradient integrals                  ...  NO (   0 nuclei)
Spin-dipole/Fermi contact integrals       ...  NO (   0 nuclei)
Contact density integrals                 ...  NO (   0 nuclei)
Nucleus-orbit integrals                   ...  NO (   0 nuclei)
Geometric perturbations                   ... YES (   6 nuclei)

Choice of electric origin   ... Center of mass
Position of electric origin ... ( -2.7592, -3.4095, -0.8820) 
Choice of magnetic origin   ... GIAO
Position of magnetic origin ... (  0.0000,  0.0000,  0.0000) 

Calculating integrals                     ... Geometrical perturbation right hand sides

-----------------------
GEOMETRIC PERTURBATIONS (6 nuclei)
-----------------------

MaxCore                            ...    500 MB
Number of batches                  ...      1

BATCH   0: Atoms    0 -    5 ( 18 perturbations)
   => H(core) and overlap derivative integrals     ... done (     0.0 sec)
   => Making and storing internal U-coefficients   ... done (     0.0 sec)
done (     0.2 sec)
done (     0.0 sec)
   => XC derivative integrals                      ... done (     1.8 sec)
   => XC response operators                        ... done (     0.5 sec)
   => Completing and storing right hand sides      ... done (     0.0 sec)
   => Total time for right hand sides =   2.6 sec

  geometrical perturbations done (  2.6 sec)

Property integrals calculated in   2.6 sec

Maximum memory used throughout the entire PROPINT-calculation: 16.4 MB


           ************************************************************
           *        Program running with 4 parallel MPI-processes     *
           *              working on a common directory               *
           ************************************************************
------------------------------------------------------------------------------
                            ORCA SCF RESPONSE CALCULATION
------------------------------------------------------------------------------

GBWName                                 ... /scratch/hbxr153/tmp/965679/bond_sn2.gbw
Number of atoms                         ...      6
Number of basis functions               ...     85
Max core memory                         ...    500 MB

Electric field perturbation             ...  NO
Quadrupolar field perturbation          ...  NO
Magnetic field perturbation (no GIAO)   ...  NO
Magnetic field perturbation (with GIAO) ...  NO
Linear momentum (velocity) perturbation ...  NO
Spin-orbit coupling perturbation        ...  NO
Choice of electric origin               ... Center of mass
Position of electric origin             ...    -2.759163    -3.409537    -0.881986
Choice of magnetic origin               ... GIAO
Position of magnetic origin             ...     0.000000     0.000000     0.000000
Nuclear geometric perturbations         ... YES (  18 perturbations)
Nucleus-orbit perturbations             ...  NO (   0 perturbations)
Spin-dipole/Fermi contact perturbations ...  NO (   0 perturbations)

Total number of real perturbations      ...     18
Total number of imaginary perturbations ...      0
Total number of triplet perturbations   ...      0
Total number of SOC perturbations       ...      0

Using XC Grid                  ... (/scratch/hbxr153/tmp/965679/bond_sn2.grid_cpscf.tmp) 
Recalculating density on grid  ... (/scratch/hbxr153/tmp/965679/bond_sn2.grho_cpscf0.tmp) done
Calculating the xc-kernel      ... (/scratch/hbxr153/tmp/965679/bond_sn2.fxc_cpscf0.tmp) done

                                **********************
                                * REAL PERTURBATIONS *
                                **********************



-------------------
SHARK CP-SCF DRIVER
-------------------

Dimension of the orbital basis          ...     85
Dimension of the CPSCF-problem          ...   1206
Number of operators                     ...      1
Max. number of iterations               ...    128
Convergence Tolerance                   ... 1.0e-04
Number of perturbations                 ...     18
Perturbation type                       ... REAL

----------------------------
POPLE LINEAR EQUATION SOLVER
----------------------------

  ||err||_max =   2.0486e-01 (   0.2 sec   0/ 18 done)
  ||err||_max =   2.2221e-02 (   0.2 sec   0/ 18 done)
  ||err||_max =   1.1640e-02 (   0.2 sec   0/ 18 done)
  ||err||_max =   2.2638e-03 (   0.2 sec   0/ 18 done)
  ||err||_max =   6.9550e-04 (   0.2 sec   0/ 18 done)
  ||err||_max =   1.4784e-04 (   0.2 sec  15/ 18 done)
  ||err||_max =   3.5144e-05 (   0.1 sec  18/ 18 done)

CP-SCF equations solved in   1.5 sec
Response densities calculated in   0.0 sec

Maximum memory used throughout the entire SCFRESP-calculation: 7.5 MB


           ************************************************************
           *        Program running with 4 parallel MPI-processes     *
           *              working on a common directory               *
           ************************************************************

------------------------------------------------------------------------------
                              ORCA PROPERTY CALCULATIONS
------------------------------------------------------------------------------

GBWName                                 ... /scratch/hbxr153/tmp/965679/bond_sn2.gbw
Number of atoms                         ...      6
Number of basis functions               ...     85
Max core memory                         ...    500 MB

Electric properties:
Dipole moment                           ...  NO
Quadrupole moment                       ...  NO
Static polarizability (Dipole/Dipole)   ...  NO
Static polarizability (Dipole/Quad.)    ...  NO
Static polarizability (Quad./Quad.)     ...  NO
Static polarizability (Velocity)        ...  NO

Atomic electric properties:
Dipole moment                           ...  NO
Quadrupole moment                       ...  NO
Static polarizability                   ...  NO

Choice of electric origin               ... Center of mass
Position of electric origin             ...    -2.759163    -3.409537    -0.881986

General magnetic properties:
Magnetizability                         ...  NO

EPR properties:
g-Tensor (aka g-matrix)                 ...  NO
Zero-Field splitting spin-orbit         ...  NO
Zero-field splitting spin-spin          ...  NO
Hyperfine couplings                     ...  NO (   0 nuclei)
Quadrupole couplings                    ...  NO (   0 nuclei)
Contact density                         ...  NO (   0 nuclei)

NMR properties:
Chemical shifts                         ...  NO (   0 nuclei)
Spin-rotation constants                 ...  NO (   0 nuclei)
Spin-spin couplings                     ...  NO (   0 nuclei,    0 pairs)

Choice of magnetic origin               ... GIAO
Position of magnetic origin             ...     0.000000     0.000000     0.000000

Properties with geometric perturbations:
SCF Hessian                             ... YES
IR spectrum                             ... YES
VCD spectrum                            ...  NO
X-ray spectroscopy properties:
SCF XES/XAS/RIXS spectra                ...  NO


-----------
SCF HESSIAN
-----------

Occupied/Occupied contributions to the Hessian:
   => Occupied/Occupied contributions              ... done (  0.0 sec)
Perturbed density contributions to the Hessian:
   => Perturbed density contributions              ... done (  0.0 sec)
Explicit contributions to the Hessian:
   => Nuclear repulsion Hessian                    ... done (  0.0 sec)
   => HCore and overlap Hessian                    ... done (  0.1 sec)
done (  0.2 sec)
   => XC-Hessian                                   ... done (  1.0 sec)
   => Van der Waals-Hessian                        ... done (  0.2 sec)
   => GCP-Hessian                                  ... done (  0.0 sec)
   => Explicit contributions done
Dipole derivatives                                 ... done (  0.0 sec)
Mass weighting the Hessian           ... done
Calculating normal modes             ... done
Scaling frequencies                  ... done

-----------------------
VIBRATIONAL FREQUENCIES
-----------------------

Scaling factor for frequencies =  1.000000000  (already applied!)

     0:       0.00 cm**-1
     1:       0.00 cm**-1
     2:       0.00 cm**-1
     3:       0.00 cm**-1
     4:       0.00 cm**-1
     5:       0.00 cm**-1
     6:    -329.02 cm**-1  ***imaginary mode***
     7:     258.99 cm**-1
     8:     259.62 cm**-1
     9:     447.57 cm**-1
    10:    1285.20 cm**-1
    11:    1285.58 cm**-1
    12:    1341.19 cm**-1
    13:    1341.51 cm**-1
    14:    1363.10 cm**-1
    15:    3153.02 cm**-1
    16:    3354.25 cm**-1
    17:    3354.61 cm**-1


------------
NORMAL MODES
------------

These modes are the Cartesian displacements weighted by the diagonal matrix
M(i,i)=1/sqrt(m[i]) where m[i] is the mass of the displaced atom
Thus, these vectors are normalized but *not* orthogonal

                  0          1          2          3          4          5    
      0       0.000000   0.000000   0.000000   0.000000   0.000000   0.000000
      1       0.000000   0.000000   0.000000   0.000000   0.000000   0.000000
      2       0.000000   0.000000   0.000000   0.000000   0.000000   0.000000
      3       0.000000   0.000000   0.000000   0.000000   0.000000   0.000000
      4       0.000000   0.000000   0.000000   0.000000   0.000000   0.000000
      5       0.000000   0.000000   0.000000   0.000000   0.000000   0.000000
      6       0.000000   0.000000   0.000000   0.000000   0.000000   0.000000
      7       0.000000   0.000000   0.000000   0.000000   0.000000   0.000000
      8       0.000000   0.000000   0.000000   0.000000   0.000000   0.000000
      9       0.000000   0.000000   0.000000   0.000000   0.000000   0.000000
     10       0.000000   0.000000   0.000000   0.000000   0.000000   0.000000
     11       0.000000   0.000000   0.000000   0.000000   0.000000   0.000000
     12       0.000000   0.000000   0.000000   0.000000   0.000000   0.000000
     13       0.000000   0.000000   0.000000   0.000000   0.000000   0.000000
     14       0.000000   0.000000   0.000000   0.000000   0.000000   0.000000
     15       0.000000   0.000000   0.000000   0.000000   0.000000   0.000000
     16       0.000000   0.000000   0.000000   0.000000   0.000000   0.000000
     17       0.000000   0.000000   0.000000   0.000000   0.000000   0.000000
                  6          7          8          9         10         11    
      0       0.211741   0.257301  -0.353847  -0.054093  -0.035918   0.049514
      1       0.376794   0.294957   0.277568  -0.097620   0.049988   0.027431
      2       0.736424  -0.225080  -0.040753  -0.188801  -0.015064  -0.028249
      3      -0.061667   0.306459  -0.413807  -0.019524   0.124043  -0.444458
      4      -0.115816   0.306838   0.298884  -0.060699  -0.230416  -0.102805
      5      -0.204774  -0.225617  -0.019044  -0.055610  -0.544929  -0.290993
      6      -0.071029   0.298655  -0.366678  -0.042174   0.024461  -0.251885
      7      -0.099238   0.351630   0.282108  -0.020788   0.181548  -0.419528
      8      -0.210911  -0.263339  -0.061465  -0.068748   0.628165  -0.024137
      9      -0.051994   0.247780  -0.390582   0.004347   0.182742   0.242668
     10      -0.101791   0.319334   0.340614  -0.027223  -0.406073   0.270960
     11      -0.215140  -0.255773  -0.050697  -0.079301   0.062338   0.575009
     12      -0.069661  -0.110964   0.152363  -0.203130  -0.006234   0.008547
     13      -0.124248  -0.127241  -0.119871  -0.357723   0.008467   0.004658
     14      -0.242541   0.096773   0.017092  -0.702723  -0.002735  -0.004871
     15      -0.029155  -0.051958   0.071528   0.128807   0.006091  -0.008456
     16      -0.052064  -0.059544  -0.056005   0.227854  -0.008538  -0.004642
     17      -0.101586   0.045571   0.008378   0.446318   0.002430   0.004792
                 12         13         14         15         16         17    
      0      -0.059613  -0.045944  -0.001221   0.000306  -0.043704  -0.090608
      1       0.049020  -0.049292  -0.003318   0.000495   0.088474  -0.029622
      2      -0.007876   0.038372  -0.006220   0.000917  -0.032483   0.041260
      3       0.576613   0.278116  -0.149622   0.008538  -0.012598   0.000858
      4       0.099884  -0.276475  -0.256300   0.512437  -0.643033   0.324023
      5       0.112706  -0.391966  -0.499984  -0.265706   0.335864  -0.167672
      6      -0.222455   0.299319  -0.142928   0.478983   0.564212   0.368096
      7      -0.224158   0.435264  -0.250876  -0.321155  -0.376244  -0.251671
      8      -0.385417  -0.373918  -0.489964   0.023428   0.024810   0.019331
      9       0.300436  -0.070272  -0.144545  -0.489323  -0.042235   0.686961
     10      -0.426349   0.384765  -0.251468  -0.193752  -0.011744   0.272862
     11       0.343958   0.338409  -0.501625   0.237990   0.017863  -0.332459
     12       0.010150   0.007765   0.010717  -0.000537   0.000362   0.000758
     13      -0.008123   0.008406   0.019305  -0.000952  -0.000739   0.000247
     14       0.001732  -0.006431   0.037614  -0.001861   0.000270  -0.000346
     15      -0.003854  -0.003015   0.007098   0.000235   0.000130   0.000269
     16       0.003401  -0.003259   0.012349   0.000413  -0.000264   0.000088
     17      -0.000285   0.002600   0.024360   0.000809   0.000097  -0.000122


-----------
IR SPECTRUM
-----------

 Mode   freq       eps      Int      T**2         TX        TY        TZ
       cm**-1   L/(mol*cm) km/mol    a.u.
----------------------------------------------------------------------------
  7:    258.99   0.002809   14.20  0.003385  ( 0.033123  0.037908 -0.029164)
  8:    259.62   0.002811   14.20  0.003379  (-0.045778  0.035305 -0.006048)
  9:    447.57   0.000084    0.42  0.000058  ( 0.001905  0.003344  0.006608)
 10:   1285.20   0.000248    1.25  0.000060  ( 0.004388 -0.006125  0.001841)
 11:   1285.58   0.000247    1.25  0.000060  (-0.006045 -0.003383  0.003444)
 12:   1341.19   0.000390    1.97  0.000091  ( 0.007300 -0.006031  0.001051)
 13:   1341.51   0.000392    1.98  0.000091  ( 0.005646  0.006078 -0.004727)
 14:   1363.10   0.000381    1.92  0.000087  ( 0.002228  0.004159  0.008058)
 15:   3153.02   0.000476    2.41  0.000047  ( 0.001707  0.003017  0.005924)
 16:   3354.25   0.001585    8.01  0.000147  (-0.005105  0.010397 -0.003645)
 17:   3354.61   0.001586    8.01  0.000148  (-0.010554 -0.003489  0.004895)

* The epsilon (eps) is given for a Dirac delta lineshape.
** The dipole moment derivative (T) already includes vibrational overlap.

The first frequency considered to be a vibration is 7
The total number of vibrations considered is 11


--------------------------
THERMOCHEMISTRY AT 298.15K
--------------------------

Temperature         ...   298.15 K
Pressure            ...     1.00 atm
Total Mass          ...    69.49 AMU
Quasi RRHO          ...     True
Cut-Off Frequency   ...     1.00 cm^-1

Throughout the following assumptions are being made:
  (1) The electronic state is orbitally nondegenerate
  (2) There are no thermally accessible electronically excited states
  (3) Hindered rotations indicated by low frequency modes are not
      treated as such but are treated as vibrations and this may
      cause some error
  (4) All equations used are the standard statistical mechanics
      equations for an ideal gas
  (5) All vibrations are strictly harmonic

freq.     258.99  E(vib)   ...       0.30 
freq.     259.62  E(vib)   ...       0.30 
freq.     447.57  E(vib)   ...       0.17 
freq.    1285.20  E(vib)   ...       0.01 
freq.    1285.58  E(vib)   ...       0.01 
freq.    1341.19  E(vib)   ...       0.01 
freq.    1341.51  E(vib)   ...       0.01 
freq.    1363.10  E(vib)   ...       0.01 
freq.    3153.02  E(vib)   ...       0.00 
freq.    3354.25  E(vib)   ...       0.00 
freq.    3354.61  E(vib)   ...       0.00 

------------
INNER ENERGY
------------

The inner energy is: U= E(el) + E(ZPE) + E(vib) + E(rot) + E(trans)
    E(el)   - is the total energy from the electronic structure calculation
              = E(kin-el) + E(nuc-el) + E(el-el) + E(nuc-nuc)
    E(ZPE)  - the the zero temperature vibrational energy from the frequency calculation
    E(vib)  - the the finite temperature correction to E(ZPE) due to population
              of excited vibrational states
    E(rot)  - is the rotational thermal energy
    E(trans)- is the translational thermal energy

Summary of contributions to the inner energy U:
Electronic energy                ...   -599.91202278 Eh
Zero point energy                ...      0.03974182 Eh      24.94 kcal/mol
Thermal vibrational correction   ...      0.00126437 Eh       0.79 kcal/mol
Thermal rotational correction    ...      0.00141627 Eh       0.89 kcal/mol
Thermal translational correction ...      0.00141627 Eh       0.89 kcal/mol
-----------------------------------------------------------------------
Total thermal energy                   -599.86818405 Eh


Summary of corrections to the electronic energy:
(perhaps to be used in another calculation)
Total thermal correction                  0.00409691 Eh       2.57 kcal/mol
Non-thermal (ZPE) correction              0.03974182 Eh      24.94 kcal/mol
-----------------------------------------------------------------------
Total correction                          0.04383873 Eh      27.51 kcal/mol


--------
ENTHALPY
--------

The enthalpy is H = U + kB*T
                kB is Boltzmann's constant
Total thermal energy              ...   -599.86818405 Eh 
Thermal Enthalpy correction       ...      0.00094421 Eh       0.59 kcal/mol
-----------------------------------------------------------------------
Total Enthalpy                    ...   -599.86723984 Eh


Note: Rotational entropy computed according to Herzberg 
Infrared and Raman Spectra, Chapter V,1, Van Nostrand Reinhold, 1945 
Point Group:  C3v, Symmetry Number:   3  
Rotational constants in cm-1:     4.869087     0.097098     0.097098 

Vibrational entropy computed according to the QRRHO of S. Grimme
Chem.Eur.J. 2012 18 9955 using a reference frequency of 100.0 cm-1


-------
ENTROPY
-------

The entropy contributions are T*S = T*(S(el)+S(vib)+S(rot)+S(trans))
     S(el)   - electronic entropy
     S(vib)  - vibrational entropy
     S(rot)  - rotational entropy
     S(trans)- translational entropy
The entropies will be listed as multiplied by the temperature to get
units of energy

Electronic entropy                ...      0.00000000 Eh      0.00 kcal/mol
Vibrational entropy               ...      0.00203026 Eh      1.27 kcal/mol
Rotational entropy                ...      0.00992811 Eh      6.23 kcal/mol
Translational entropy             ...      0.01835566 Eh     11.52 kcal/mol
-----------------------------------------------------------------------
Final entropy term                ...      0.03031402 Eh     19.02 kcal/mol

In case the symmetry of your molecule has not been determined correctly
or in case you have a reason to use a different symmetry number we print 
out the resulting rotational entropy values for sn=1,12:

 non-linear molecules -----------------------------------
|  sn= 1 | S(rot)=       0.01096539 Eh      6.88 kcal/mol|
|  sn= 2 | S(rot)=       0.01031094 Eh      6.47 kcal/mol|
|  sn= 3 | S(rot)=       0.00992811 Eh      6.23 kcal/mol|
|  sn= 4 | S(rot)=       0.00965648 Eh      6.06 kcal/mol|
|  sn= 5 | S(rot)=       0.00944579 Eh      5.93 kcal/mol|
|  sn= 6 | S(rot)=       0.00927365 Eh      5.82 kcal/mol|
|  sn= 7 | S(rot)=       0.00912810 Eh      5.73 kcal/mol|
|  sn= 8 | S(rot)=       0.00900203 Eh      5.65 kcal/mol|
|  sn= 9 | S(rot)=       0.00889082 Eh      5.58 kcal/mol|
|  sn=10 | S(rot)=       0.00879134 Eh      5.52 kcal/mol|
|  sn=11 | S(rot)=       0.00870135 Eh      5.46 kcal/mol|
|  sn=12 | S(rot)=       0.00861919 Eh      5.41 kcal/mol|
 linear molecules ---------------------------------------
|  Dinfh | S(rot)=       0.00752767 Eh      4.72 kcal/mol|
|  Cinfv | S(rot)=       0.00818212 Eh      5.13 kcal/mol|
 --------------------------------------------------------


-------------------
GIBBS FREE ENERGY
-------------------

The Gibbs free energy is G = H - T*S

Total enthalpy                    ...   -599.86723984 Eh 
Total entropy correction          ...     -0.03031402 Eh    -19.02 kcal/mol
-----------------------------------------------------------------------
Final Gibbs free energy         ...   -599.89755386 Eh

For completeness - the Gibbs free energy minus the electronic energy
G-E(el)                           ...      0.01446892 Eh      9.08 kcal/mol


Maximum memory used throughout the entire PROP-calculation: 25.3 MB
Actual Hessian File stored as /scratch/hbxr153/tmp/965679/bond_sn2.001.hess
------------------------------------------------------------------------------
                         ORCA GEOMETRY RELAXATION STEP
------------------------------------------------------------------------------

Reading the OPT-File                    .... done
Getting information on internals        .... done
Copying old internal coords+grads       .... done
Making the new internal coordinates     .... (2022 redundants) done
Validating the new internal coordinates .... (2022 redundants) done
Calculating the B-matrix                .... done
Calculating the G,G- and P matrices     .... done
Transforming gradient to internals      .... done
Projecting the internal gradient        .... done
Number of atoms                         ....   6
Number of internal coordinates          ....  14
Current Energy                          ....  -599.912022781 Eh
Current gradient norm                   ....     0.108198750 Eh/bohr
Maximum allowed component of the step   ....  0.300
Current trust radius                    ....  0.300
Evaluating the initial hessian          ....  (read) 
(Reading Exact Hessian)...  
InHessName: /scratch/hbxr153/tmp/965679/bond_sn2.hess	The file </scratch/hbxr153/tmp/965679/bond_sn2.hess> is opened as a .hess file
done
done
Projecting the Hessian                  .... done
Diagonalizing the Hessian               .... done
Dimension of the hessian                ....  14
Lowest eigenvalues of the Hessian:
 -0.011487141  0.073288696  0.073384131  0.114354864  0.114586490
Hessian has   1 negative eigenvalues
Taking P-RFO step
Searching for lambda that maximizes along the lowest mode
TS mode is mode number   0 with eigenvalue  -0.01148714 and components:
   1.    0.00581788
   2.    0.00597951
   3.    0.00597741
   4.   -0.58977424
   5.    0.49428274
   6.    0.00016748
   7.   -0.00027488
   8.    0.25989413
   9.    0.26154105
  10.    0.26062353
  11.   -0.26091626
  12.   -0.26030014
  13.   -0.26084231
  14.    0.00010744

Lambda that maximizes along the TS mode:       0.00752654
Searching for lambda that minimizes along all other modes
In cycle   1: lambdaN =  -0.03979190   step =   0.03979190
In cycle   2: lambdaN =  -0.04110916   step =   0.00131726
In cycle   3: lambdaN =  -0.04111015   step =   0.00000100
In cycle   4: lambdaN =  -0.04111015   step =   0.00000000
Lambda that minimizes along all other modes:  -0.04111015
Calculated stepsize too large (   0.5525 >    0.3000). Scaled with    0.5430.
The final length of the internal step   ....       0.3000
Converting the step to Cartesian space:
 Initial RMS(Int)=    0.0801783726
Transforming coordinates:
 Iter   0:  RMS(Cart)=    0.0561061709 RMS(Int)=    0.0805641940
 Iter   5:  RMS(Cart)=    0.0000004734 RMS(Int)=    0.0000005287
done
Storing new coordinates                 .... done

                                .--------------------.
          ----------------------|Geometry convergence|-------------------------
          Item                value                   Tolerance       Converged
          ---------------------------------------------------------------------
          RMS gradient        0.0277834236            0.0001000000      NO
          MAX gradient        0.0941515809            0.0003000000      NO
          RMS step            0.0801783726            0.0020000000      NO
          MAX step            0.1628983539            0.0040000000      NO
          ........................................................
          Max(Bonds)      0.0862      Max(Angles)    5.91
          Max(Dihed)        0.00      Max(Improp)    0.00
          ---------------------------------------------------------------------

The optimization has not yet converged - more geometry cycles are needed


    ---------------------------------------------------------------------------
                         Redundant Internal Coordinates
                            (Angstroem and degrees)

        Definition                    Value    dE/dq     Step     New-Value  comp.(TS mode)
    ----------------------------------------------------------------------------
     1. B(H   1,C   0)                1.0700 -0.006189  0.0002    1.0702   
     2. B(H   2,C   0)                1.0700 -0.006209  0.0002    1.0702   
     3. B(H   3,C   0)                1.0700 -0.006192  0.0002    1.0702   
     4. B(F   4,C   0)                1.7170 -0.038333  0.0862    1.8032          0.59
     5. B(Cl  5,C   0)                1.9525 -0.094152  0.0072    1.9597          0.49
     6. A(H   1,C   0,H   3)          120.00 -0.000003   -0.00    120.00   
     7. A(H   2,C   0,H   3)          120.00  0.000004    0.01    120.01   
     8. A(H   1,C   0,F   4)           90.00  0.007757   -5.86     84.14          0.26
     9. A(H   2,C   0,F   4)           90.00  0.007685   -5.91     84.09          0.26
    10. A(H   3,C   0,F   4)           90.00  0.007723   -5.88     84.12          0.26
    11. A(H   1,C   0,Cl  5)           90.00 -0.007689    5.89     95.89          0.26
    12. A(H   2,C   0,Cl  5)           90.00 -0.007744    5.87     95.87          0.26
    13. A(H   3,C   0,Cl  5)           90.00 -0.007732    5.89     95.89          0.26
    14. A(H   1,C   0,H   2)          120.00 -0.000001   -0.00    120.00   
    ----------------------------------------------------------------------------

Geometry step timings:
Preparation and reading OPT file:      0.000 s ( 4.018 %)
Internal coordinates            :      0.000 s ( 0.253 %)
B/P matrices and projection     :      0.000 s ( 1.206 %)
Hessian update/contruction      :      0.008 s (73.966 %)
Making the step                 :      0.000 s ( 1.469 %)
Converting the step to Cartesian:      0.000 s ( 0.370 %)
Storing new data                :      0.001 s ( 6.742 %)
Checking convergence            :      0.000 s ( 0.010 %)
Final printing                  :      0.001 s (11.908 %)
Total time                      :      0.010 s

Time for energy+gradient        :      4.910 s
Time for complete geometry iter :     13.296 s

         *************************************************************
         *                GEOMETRY OPTIMIZATION CYCLE   2            *
         *************************************************************
---------------------------------
CARTESIAN COORDINATES (ANGSTROEM)
---------------------------------
  C     -1.345679   -1.602566   -0.070915
  H     -1.335032   -2.500660    0.511024
  H     -2.202743   -0.963562   -0.022010
  H     -0.417250   -1.198819   -0.417718
  F     -0.896745   -0.808783    1.484689
  Cl    -1.834264   -2.464287   -1.761761

----------------------------
CARTESIAN COORDINATES (A.U.)
----------------------------
  NO LB      ZA    FRAG     MASS         X           Y           Z
   0 C     6.0000    0    12.011   -2.542966   -3.028410   -0.134010
   1 H     1.0000    0     1.008   -2.522845   -4.725563    0.965695
[...]
    7    -599.9000649197254234     8.76e-07  2.19e-05  2.49e-04  3.70e-04     0.1
    8    -599.9000662613855184    -1.34e-06  3.92e-06  4.55e-05  1.98e-05     0.1
    9    -599.9000662578196170     3.57e-09  1.94e-06  2.39e-05  3.20e-05     0.1
                 **** Energy Check signals convergence ****

               *****************************************************
               *                     SUCCESS                       *
               *           SCF CONVERGED AFTER   9 CYCLES          *
               *****************************************************

             **** ENERGY FILE WAS UPDATED (/scratch/hbxr153/tmp/965679/bond_sn2.en.tmp) ****

----------------
TOTAL SCF ENERGY
----------------

Total Energy       :       -599.90006625781962 Eh          -16324.11070 eV

Components:
Nuclear Repulsion  :         85.52745315546346 Eh            2327.32032 eV
Electronic Energy  :       -685.42751941328311 Eh          -18651.43102 eV
One Electron Energy:      -1006.46469519271591 Eh          -27387.29670 eV
Two Electron Energy:        321.03717577943274 Eh            8735.86568 eV

Virial components:
Potential Energy   :      -1198.26414236632809 Eh          -32606.42499 eV
Kinetic Energy     :        598.36407610850836 Eh           16282.31429 eV
Virial Ratio       :          2.00256698256236

DFT components:
N(Alpha)           :       18.000008893797 electrons
N(Beta)            :       18.000008893797 electrons
N(Total)           :       36.000017787594 electrons
E(X)               :      -44.060258439316 Eh       
E(C)               :       -1.267904647809 Eh       
E(XC)              :      -45.328163087125 Eh       

---------------
SCF CONVERGENCE
---------------

  Last Energy change         ...   -3.5659e-09  Tolerance :   1.0000e-08
  Last MAX-Density change    ...    2.3874e-05  Tolerance :   1.0000e-07
  Last RMS-Density change    ...    1.9361e-06  Tolerance :   5.0000e-09
  Last DIIS Error            ...    7.8979e-04  Tolerance :   5.0000e-07
  Last Orbital Gradient      ...    3.2001e-05  Tolerance :   1.0000e-05
  Last Orbital Rotation      ...    1.5118e-05  Tolerance :   1.0000e-05


Total SCF time: 0 days 0 hours 0 min 1 sec 
Finished LeanSCF after   1.5 sec

Maximum memory used throughout the entire LEANSCF-calculation: 13.9 MB


           ************************************************************
           *        Program running with 4 parallel MPI-processes     *
           *              working on a common directory               *
           ************************************************************

------------------------------------------------------------------------------
                         ORCA PROPERTY INTEGRAL CALCULATIONS
------------------------------------------------------------------------------

GBWName                                   ... /scratch/hbxr153/tmp/965679/bond_sn2.gbw
Number of atoms                           ...      6
Number of basis functions                 ...     85
Max core memory                           ...    500 MB

Dipole integrals                          ... YES
Quadrupole integrals                      ...  NO
Linear momentum integrals                 ...  NO
Angular momentum integrals                ...  NO
Higher moments length integrals           ...  NO
Higher moments velocity integrals         ...  NO
Kinetic energy integrals                  ...  NO
GIAO right hand sides                     ...  NO
GIAO dipole derivative integrals          ...  NO
SOC integrals                             ...  NO
EPR diamagnetic integrals (GIAO)          ...  NO
EPR gauge integrals                       ...  NO
Field gradient integrals                  ...  NO (   0 nuclei)
Spin-dipole/Fermi contact integrals       ...  NO (   0 nuclei)
Contact density integrals                 ...  NO (   0 nuclei)
Nucleus-orbit integrals                   ...  NO (   0 nuclei)
Geometric perturbations                   ...  NO (   6 nuclei)

Choice of electric origin   ... Center of mass
Position of electric origin ... ( -2.5784, -3.5561, -1.2579) 
Choice of magnetic origin   ... GIAO
Position of magnetic origin ... (  0.0000,  0.0000,  0.0000) 

Calculating integrals                     ... Electric Dipole (Length)     done (  0.0 sec)

Property integrals calculated in   0.0 sec

Maximum memory used throughout the entire PROPINT-calculation: 5.4 MB


-------------------------------------------------------------------------------
                          DFT DISPERSION CORRECTION                            
                                                                               
                                DFTD4 V3.4.0                                   
-------------------------------------------------------------------------------
-------------------------   ----------------
Dispersion correction           -0.000843436
-------------------------   ----------------

------------------   -----------------
gCP correction             0.005985621
------------------   -----------------

-------------------------   --------------------
FINAL SINGLE POINT ENERGY      -599.894924073522
-------------------------   --------------------



           ************************************************************
           *        Program running with 4 parallel MPI-processes     *
           *              working on a common directory               *
           ************************************************************
------------------------------------------------------------------------------
                         ORCA SCF GRADIENT CALCULATION
------------------------------------------------------------------------------

Nuc. rep. gradient        (SHARK) ... done (  0.0 sec)
HCore & Overlap gradient  (SHARK) ... done (  0.0 sec)
done (  0.1 sec)
XC gradient                       ... done (  0.1 sec)
Dispersion correction             ... done (  0.0 sec)

-------------------
DISPERSION GRADIENT
-------------------

   1   C   :    0.000038890    0.000025784    0.000067544
   2   H   :   -0.000000811    0.000007854   -0.000006492
   3   H   :    0.000006588   -0.000004578   -0.000003781
   4   H   :   -0.000042505   -0.000022917   -0.000047265
   5   F   :    0.000012043    0.000009970    0.000020504
   6   Cl  :   -0.000014206   -0.000016112   -0.000030510

Difference to translation invariance:
           :    0.0000000000    0.0000000000   -0.0000000000

Difference to rotation invariance:
           :   -0.0000000000   -0.0000000000    0.0000000000

Norm of the Dispersion gradient    ...    0.0001163852
RMS gradient                       ...    0.0000274323
MAX gradient                       ...    0.0000675440
gCP correction                   ... done

------------------
CARTESIAN GRADIENT
------------------

   1   C   :    0.025271200    0.009259601   -0.004095060
   2   H   :    0.025215510    0.008581627    0.017937988
   3   H   :   -0.013024728    0.001595570   -0.017421199
   4   H   :   -0.021512095   -0.023638317    0.008829163
   5   F   :   -0.001070275    0.000104738   -0.006083221
   6   Cl  :   -0.014879613    0.004096782    0.000832328

Difference to translation invariance:
           :   -0.0000000000   -0.0000000001   -0.0000000000

Difference to rotation invariance:
           :    0.0000546285   -0.0000233524   -0.0000053715

Norm of the Cartesian gradient     ...    0.0602046860
RMS gradient                       ...    0.0141903806
MAX gradient                       ...    0.0252712001

-------
TIMINGS
-------

Total SCF gradient time     ....        0.224 sec

Densities                   ....       0.000 sec  (  0.0%)
One electron gradient       ....       0.006 sec  (  2.5%)
RI-J Coulomb gradient       ....       0.068 sec  ( 30.6%)
XC gradient                 ....       0.115 sec  ( 51.2%)

Maximum memory used throughout the entire SCFGRAD-calculation: 25.2 MB
------------------------------------------------------------------------------
                         ORCA GEOMETRY RELAXATION STEP
------------------------------------------------------------------------------

Reading the OPT-File                    .... done
Getting information on internals        .... done
Copying old internal coords+grads       .... done
Making the new internal coordinates     .... (2022 redundants) done
Validating the new internal coordinates .... (2022 redundants) done
Calculating the B-matrix                .... done
Calculating the G,G- and P matrices     .... done
Transforming gradient to internals      .... done
Projecting the internal gradient        .... done
Number of atoms                         ....   6
Number of internal coordinates          ....  14
Current Energy                          ....  -599.894924074 Eh
Current gradient norm                   ....     0.060204686 Eh/bohr
Maximum allowed component of the step   ....  0.300
Current trust radius                    ....  0.100
Updating the Hessian (Bofill)           .... done
Diagonalizing the Hessian               .... done
Dimension of the hessian                ....  14
Lowest eigenvalues of the Hessian:
  0.001374366  0.050194316  0.124037208  0.152395007  0.166009775
Hessian has   0 negative eigenvalues
Taking P-RFO step
Searching for lambda that maximizes along the lowest mode
TS mode is mode number   0 with eigenvalue   0.00137437 and components:
   1.    0.00739997
   2.   -0.05431649
   3.   -0.22648362
   4.    0.07485624
   5.   -0.51775780
   6.   -0.13925632
   7.   -0.26705724
   8.    0.13437310
   9.   -0.38318270
  10.   -0.10554389
  11.    0.37524069
  12.    0.45988604
  13.   -0.20251110
  14.    0.10943276

Lambda that maximizes along the TS mode:       0.00505532
Searching for lambda that minimizes along all other modes
In cycle   1: lambdaN =  -0.02554440   step =   0.02554440
In cycle   2: lambdaN =  -0.02875733   step =   0.00321293
In cycle   3: lambdaN =  -0.02877949   step =   0.00002217
In cycle   4: lambdaN =  -0.02877949   step =   0.00000000
Lambda that minimizes along all other modes:  -0.02877949
Calculated stepsize too large (   0.7967 >    0.1000). Scaled with    0.1255.
The final length of the internal step   ....       0.1000
Converting the step to Cartesian space:
 Initial RMS(Int)=    0.0267261242
Transforming coordinates:
 Iter   0:  RMS(Cart)=    0.0337241197 RMS(Int)=    0.0269854374
done
Storing new coordinates                 .... done
The predicted energy change is          ....     0.012094829
Previously predicted energy change      ....     0.080417790
Actually observed energy change         ....     0.002986047
Ratio of predicted to observed change   ....     0.037131674
New trust radius                        ....     0.100000000

                                .--------------------.
          ----------------------|Geometry convergence|-------------------------
          Item                value                   Tolerance       Converged
          ---------------------------------------------------------------------
          Energy change       0.0029860472            0.0000050000      NO
          RMS gradient        0.0224830981            0.0001000000      NO
          MAX gradient        0.0622531822            0.0003000000      NO
          RMS step            0.0267261242            0.0020000000      NO
          MAX step            0.0376562865            0.0040000000      NO
          ........................................................
          Max(Bonds)      0.0199      Max(Angles)    2.16
          Max(Dihed)        0.00      Max(Improp)    0.00
          ---------------------------------------------------------------------

The optimization has not yet converged - more geometry cycles are needed


    ---------------------------------------------------------------------------
                         Redundant Internal Coordinates
                            (Angstroem and degrees)

        Definition                    Value    dE/dq     Step     New-Value  comp.(TS mode)
    ----------------------------------------------------------------------------
     1. B(H   1,C   0)                1.1305  0.011168 -0.0051    1.1254   
     2. B(H   2,C   0)                1.1159  0.012007  0.0028    1.1186   
     3. B(H   3,C   0)                1.4104 -0.015354  0.0160    1.4264   
     4. B(F   4,C   0)                2.4530 -0.005280 -0.0012    2.4518   
     5. B(Cl  5,C   0)                1.9352  0.000716  0.0199    1.9551          0.52
     6. A(H   1,C   0,H   3)           68.85 -0.062253    2.16     71.01   
     7. A(H   2,C   0,H   3)          111.52  0.011582    2.16    113.68          0.27
     8. A(H   1,C   0,F   4)           65.95  0.001846   -0.05     65.90   
     9. A(H   2,C   0,F   4)          106.13 -0.011833    2.16    108.28          0.38
    10. A(H   3,C   0,F   4)            7.08 -0.020077    1.18      8.26   
    11. A(H   1,C   0,Cl  5)          106.52 -0.003864   -2.16    104.36          0.38
    12. A(H   2,C   0,Cl  5)           91.03 -0.029908   -2.16     88.87          0.46
    13. A(H   3,C   0,Cl  5)          157.25  0.027830    0.24    157.49   
    14. A(H   1,C   0,H   2)          111.50  0.017428   -0.20    111.30   
    ----------------------------------------------------------------------------

Geometry step timings:
Preparation and reading OPT file:      0.000 s ( 4.681 %)
Internal coordinates            :      0.000 s ( 0.580 %)
B/P matrices and projection     :      0.000 s ( 2.876 %)
Hessian update/contruction      :      0.002 s (48.038 %)
Making the step                 :      0.000 s ( 2.809 %)
Converting the step to Cartesian:      0.000 s ( 0.602 %)
Storing new data                :      0.001 s (15.047 %)
Checking convergence            :      0.000 s ( 0.312 %)
Final printing                  :      0.001 s (24.967 %)
Total time                      :      0.004 s

Time for energy+gradient        :      4.303 s
Time for complete geometry iter :      5.020 s




    ----------------------------------------------------------------------------
                                   ERROR !!!
       The optimization did not converge but reached the maximum 
       number of optimization cycles.
       As a subsequent Frequencies calculation has been requested
       ORCA will abort at this point of the run.
       Please restart the calculation with the lowest energy geometry and/or
       a larger maxiter for the geometry optimization.
    ----------------------------------------------------------------------------



--------------------------------
SUGGESTED CITATIONS FOR THIS RUN
--------------------------------

Below you find a list of papers that are relevant to this ORCA run
We neither can nor want to force you to cite these papers, but we appreciate if you do
You receive ORCA, which is the product of decades of hard work by many enthusiastic individuals, for free
The only thing we kindly ask in return is that you cite our papers,
We deeply appreciate it, if you show your appreciation for ORCA by not just citing the generic ORCA reference.

Please note that relegating all ORCA citations to the supporting information does *not* help us.
SI sections are not indexed - citations you put there will not count into any citation statistics
But we need these citations in order to attract the funding resources that allow us to do what we are doing

Therefore, if you are a happy ORCA user, please consider citing a few of the papers listed below in the main body of your paper

In addition to the list printed below, the program has created the file /scratch/hbxr153/tmp/965679/bond_sn2.bibtex that contains the list in bibtex format
You can import this file easily into all common literature databanks and citation aid programs


List of essential papers. We consider these as the minimum necessary citations

  1. Neese,F.
     Software update: the ORCA program system, version 5.0
     WIRES Comput. Molec. Sci., 2022 12(1)e1606
     doi.org/10.1002/wcms.1606
  2. Grimme,S.; Hansen,A.; Ehlert,S.; Mewes,J.
     r2SCAN-3c: A 'Swiss army knife' composite electronic-structure method
     J. Chem. Phys., 2021 154 064103
     doi.org/10.1063/5.0040021

List of papers to cite with high priority. The work reported in these papers was absolutely
necessary for this run to complete.
Our perspective: the developers of density functionals and basis sets usually get cited in chemistry papers
Good! But without the algorithms to do something with them, the functionals or basis sets would not do anything.
Hence, in our opinion, the algorithm design and method developments papers are equally worthy of getting cited

  1. Neese,F.
     An improvement of the resolution of the identity approximation for the formation of the Coulomb matrix
     J. Comp. Chem., 2003 24(14)1740-1747
     doi.org/10.1002/jcc.10318
  2. Bykov,D.; Petrenko,T.; Izsak,R.; Kossmann,S.; Becker,U.; Valeev,E.; Neese,F.
     Efficient implementation of the analytic second derivatives of Hartree-Fock and hybrid DFT energies: a detailed analysis of different approximations
     Molec. Phys., 2015 113 1961-1977
     doi.org/10.1080/00268976.2015.1025114
  3. Neese,F.
     The SHARK Integral Generation and Digestion System
     J. Comp. Chem., 2022  1-16
     doi.org/10.1002/jcc.26942
  4. Lehtola,S.; Steigemann,C.; Oliveira,M.; Marques,M.
     Recent developments in Libxc - A comprehensive library of functionals for density functional theory
     Software X, 2018 7 
     doi.org/10.1016/j.softx.2017.11.002
  5. Caldeweyher,E.; Bannwarth,C.; Grimme,S.
     Extension of the D3 dispersion coefficient model
     J. Chem. Phys., 2017 147 034112
     doi.org/10.1063/1.4993215
  6. Caldeweyher,E.; Ehlert,S.; Hansen,A.; Neugebauer,H.; Spicher,S.; Bannwarth,C.; Grimme,S.
     A generally applicable atomic-charge dependent London dispersion correction
     J. Chem. Phys., 2019 150 154122
     doi.org/10.1063/1.5090222
  7. Caldeweyher,E.; Mewes,J.; Ehlert,S.; Grimme,S.
     Extension and evaluation of the D4 London-dispersion model for periodic systems
     Phys. Chem. Chem. Phys., 2020 22(16)8499-8512
     doi.org/10.1039/D0CP00502A
  8. Wittmann,L.; Gordiy,I.; Friede,M.; Helmich-Paris,B.; Grimme,S.; Hansen,A.; Bursch,M.
     Extension of the D3 and D4 London Dispersion Corrections to the full Actinides Series
     Phys. Chem. Chem. Phys., 2024 26(32)21379-21394
     doi.org/https://doi.org/10.1039/D4CP01514B 

List of suggested additional citations. These are papers that are important in the 'surrounding' of 
of this run, or papers that preceded the highly important papers. If you like your results we are grateful for a citation.

  1. Neese,F.
     The ORCA program system
     WIRES Comput. Molec. Sci., 2012 2(1)73-78
     doi.org/10.1002/wcms.81
  2. Neese,F.
     Software update: the ORCA program system, version 4.0
     WIRES Comput. Molec. Sci., 2018 8(1)1-6
     doi.org/10.1002/wcms.1327
  3. Neese,F.; Wennmohs,F.; Becker,U.; Riplinger,C.
     The ORCA quantum chemistry program package
     J. Chem. Phys., 2020 152 Art. No. L224108
     doi.org/10.1063/5.0004608

List of optional additional citations

  1. Neese,F.
     Approximate second-order SCF convergence for spin unrestricted wavefunctions
     Chem. Phys. Lett., 2000 325(1-3)93-98
     doi.org/10.1016/s0009-2614(00)00662-x

Timings for individual modules:

Sum of individual times          ...      211.834 sec (=   3.531 min)
Startup calculation              ...       32.851 sec (=   0.548 min)  15.5 %
SCF iterations                   ...      119.608 sec (=   1.993 min)  56.5 %
Property integrals               ...       23.824 sec (=   0.397 min)  11.2 %
SCF Gradient evaluation          ...       35.217 sec (=   0.587 min)  16.6 %
Geometry relaxation              ...        0.334 sec (=   0.006 min)   0.2 %
                             ****ORCA TERMINATED NORMALLY****
TOTAL RUN TIME: 0 days 0 hours 4 minutes 19 seconds 488 msec
