 Entering Gaussian System, Link 0=g16
 Input=spiro-TS_ro-RR_S.com
 Output=spiro-TS_ro-RR_S.log
 Initial command:
 /gpfs1/apps/software/Gaussian16/AVX2/g16/l1.exe "/tmp/ag266/222018/Gau-15157.inp" -scrdir="/tmp/ag266/222018/"
 Entering Link 1 = /gpfs1/apps/software/Gaussian16/AVX2/g16/l1.exe PID=     15158.
  
 Copyright (c) 1988-2019, Gaussian, Inc.  All Rights Reserved.
  
 This is part of the Gaussian(R) 16 program.  It is based on
 the Gaussian(R) 09 system (copyright 2009, Gaussian, Inc.),
 the Gaussian(R) 03 system (copyright 2003, Gaussian, Inc.),
 the Gaussian(R) 98 system (copyright 1998, Gaussian, Inc.),
 the Gaussian(R) 94 system (copyright 1995, Gaussian, Inc.),
 the Gaussian 92(TM) system (copyright 1992, Gaussian, Inc.),
 the Gaussian 90(TM) system (copyright 1990, Gaussian, Inc.),
 the Gaussian 88(TM) system (copyright 1988, Gaussian, Inc.),
 the Gaussian 86(TM) system (copyright 1986, Carnegie Mellon
 University), and the Gaussian 82(TM) system (copyright 1983,
 Carnegie Mellon University). Gaussian is a federally registered
 trademark of Gaussian, Inc.
  
 This software contains proprietary and confidential information,
 including trade secrets, belonging to Gaussian, Inc.
  
 This software is provided under written license and may be
 used, copied, transmitted, or stored only in accord with that
 written license.
  
 The following legend is applicable only to US Government
 contracts under FAR:
  
                    RESTRICTED RIGHTS LEGEND
  
 Use, reproduction and disclosure by the US Government is
 subject to restrictions as set forth in subparagraphs (a)
 and (c) of the Commercial Computer Software - Restricted
 Rights clause in FAR 52.227-19.
  
 Gaussian, Inc.
 340 Quinnipiac St., Bldg. 40, Wallingford CT 06492
  
  
 ---------------------------------------------------------------
 Warning -- This program may not be used in any manner that
 competes with the business of Gaussian, Inc. or will provide
 assistance to any competitor of Gaussian, Inc.  The licensee
 of this program is prohibited from giving any competitor of
 Gaussian, Inc. access to this program.  By using this program,
 the user acknowledges that Gaussian, Inc. is engaged in the
 business of creating and licensing software in the field of
 computational chemistry and represents and warrants to the
 licensee that it is not a competitor of Gaussian, Inc. and that
 it will not use this program in any manner prohibited above.
 ---------------------------------------------------------------
  

 Cite this work as:
 Gaussian 16, Revision C.01,
 M. J. Frisch, G. W. Trucks, H. B. Schlegel, G. E. Scuseria, 
 M. A. Robb, J. R. Cheeseman, G. Scalmani, V. Barone, 
 G. A. Petersson, H. Nakatsuji, X. Li, M. Caricato, A. V. Marenich, 
 J. Bloino, B. G. Janesko, R. Gomperts, B. Mennucci, H. P. Hratchian, 
 J. V. Ortiz, A. F. Izmaylov, J. L. Sonnenberg, D. Williams-Young, 
 F. Ding, F. Lipparini, F. Egidi, J. Goings, B. Peng, A. Petrone, 
 T. Henderson, D. Ranasinghe, V. G. Zakrzewski, J. Gao, N. Rega, 
 G. Zheng, W. Liang, M. Hada, M. Ehara, K. Toyota, R. Fukuda, 
 J. Hasegawa, M. Ishida, T. Nakajima, Y. Honda, O. Kitao, H. Nakai, 
 T. Vreven, K. Throssell, J. A. Montgomery, Jr., J. E. Peralta, 
 F. Ogliaro, M. J. Bearpark, J. J. Heyd, E. N. Brothers, K. N. Kudin, 
 V. N. Staroverov, T. A. Keith, R. Kobayashi, J. Normand, 
 K. Raghavachari, A. P. Rendell, J. C. Burant, S. S. Iyengar, 
 J. Tomasi, M. Cossi, J. M. Millam, M. Klene, C. Adamo, R. Cammi, 
 J. W. Ochterski, R. L. Martin, K. Morokuma, O. Farkas, 
 J. B. Foresman, and D. J. Fox, Gaussian, Inc., Wallingford CT, 2019.
 
 ******************************************
 Gaussian 16:  ES64L-G16RevC.01  3-Jul-2019
                26-Sep-2023 
 ******************************************
 %NProc=16
 Will use up to   16 processors via shared memory.
 %mem=16GB
 %chk=spiro-TS_ro-RR_S.chk
 ----------------------------------------------------------------------
 #P RM062X/gen opt=(TS,CalcFC,NoEigentest) freq scrf=(smd,solvent=Dichl
 oromethane)
 ----------------------------------------------------------------------
 1/5=1,10=4,11=1,18=20,26=3,38=1/1,3;
 2/9=110,12=2,17=6,18=5,40=1/2;
 3/5=7,11=2,25=1,30=1,70=32201,71=2,72=9,74=-55,116=1,140=1/1,2,3;
 4//1;
 5/5=2,38=5,53=9/2;
 8/6=4,10=90,11=11/1;
 11/6=1,8=1,9=11,15=111,16=1/1,2,10;
 10/6=1,13=1/2;
 6/7=2,8=2,9=2,10=2,28=1/1;
 7/10=1,25=1/1,2,3,16;
 1/5=1,10=4,11=1,18=20,26=3/3(2);
 2/9=110/2;
 99//99;
 2/9=110/2;
 3/5=7,6=1,11=2,25=1,30=1,70=32205,71=1,72=9,74=-55,82=7,116=1/1,2,3;
 4/5=5,16=3,69=1/1;
 5/5=2,38=5,53=9/2;
 7//1,2,3,16;
 1/5=1,11=1,18=20,26=3/3(-5);
 2/9=110/2;
 6/7=2,8=2,9=2,10=2,19=2,28=1/1;
 99/9=1/99;
 Leave Link    1 at Tue Sep 26 15:16:26 2023, MaxMem=  2147483648 cpu:               1.3 elap:               0.1
 (Enter /gpfs1/apps/software/Gaussian16/AVX2/g16/l101.exe)
 --------------------------------
 spiro-TS_ro-RR_S ; M062X/def2SVP
 --------------------------------
 Symbolic Z-matrix:
 Charge =  0 Multiplicity = 1
 O                     1.91723  -0.58422   2.12739 
 C                     1.61034  -0.58402   0.95934 
 N                     2.45728  -0.54831  -0.13143 
 C                     3.86527  -0.53285  -0.16074 
 C                     4.52759  -0.34732  -1.38376 
 C                     5.91912  -0.32692  -1.42392 
 C                     6.6696   -0.48818  -0.25926 
 C                     6.00592  -0.67419   0.95261 
 C                     4.61394  -0.69984   1.01505 
 N                     1.75842  -0.50844  -1.33506 
 C                     0.50221  -0.5059   -1.09828 
 C                    -0.48903  -0.50679  -2.21043 
 C                     0.17367  -0.6298    0.389 
 O                    -0.47728  -1.78926   0.70492 
 C                    -1.94772  -0.36936   1.3898 
 N                    -2.74574  -0.94395   0.21153 
 H                    -2.00849  -1.25441  -0.43834 
 C                    -3.4485   -2.19055   0.63987 
 C                    -4.18774  -2.77834  -0.54682 
 O                    -5.0964   -1.85308  -1.09045 
 C                    -4.43858  -0.70451  -1.55068 
 C                    -3.69966   0.00792  -0.42791 
 O                    -2.48002  -0.42624   2.45556 
 C                    -0.69831   0.45434   1.07086 
 C                    -0.90234   1.84973   0.5221 
 C                    -2.04162   2.59294   0.86322 
 C                    -2.20892   3.897     0.40085 
 C                    -1.23166   4.48747  -0.40124 
 C                    -0.08395   3.76636  -0.72614 
 C                     0.08187   2.45918  -0.26594 
 H                     3.94318  -0.2228   -2.29292 
 H                     6.42012  -0.18163  -2.38291 
 H                     7.75975  -0.47038  -0.29622 
 H                     6.57641  -0.80506   1.87411 
 H                     4.10584  -0.84402   1.96446 
 H                    -1.2327    0.29481  -2.07321 
 H                    -1.01161  -1.47714  -2.2494 
 H                     0.01995  -0.36005  -3.17111 
 H                    -4.13954  -1.91049   1.44318 
 H                    -2.67461  -2.8657    1.02402 
 H                    -4.75626  -3.65669  -0.21655 
 H                    -3.46508  -3.10884  -1.31841 
 H                    -5.19078  -0.0241   -1.96974 
 H                    -3.72288  -0.96311  -2.35546 
 H                    -4.39584   0.34232   0.35384 
 H                    -3.13815   0.86723  -0.81383 
 H                    -0.25667   0.54975   2.07765 
 H                    -2.80783   2.15012   1.50482 
 H                    -3.1049    4.45646   0.6757 
 H                    -1.36039   5.50887  -0.76299 
 H                     0.69522   4.22243  -1.33928 
 H                     0.99815   1.92134  -0.51765 
 
 ITRead=  0  0  0  0  0  0  0  0  0  0  0  0  0  0  0  0  0  0  0  0
 ITRead=  0  0  0  0  0  0  0  0  0  0  0  0  0  0  0  0  0  0  0  0
 ITRead=  0  0  0  0  0  0  0  0  0  0  0  0
 MicOpt= -1 -1 -1 -1 -1 -1 -1 -1 -1 -1 -1 -1 -1 -1 -1 -1 -1 -1 -1 -1
 MicOpt= -1 -1 -1 -1 -1 -1 -1 -1 -1 -1 -1 -1 -1 -1 -1 -1 -1 -1 -1 -1
 MicOpt= -1 -1 -1 -1 -1 -1 -1 -1 -1 -1 -1 -1
 NAtoms=     52 NQM=       52 NQMF=       0 NMMI=      0 NMMIF=      0
                NMic=       0 NMicF=      0.
                    Isotopes and Nuclear Properties:
 (Nuclear quadrupole moments (NQMom) in fm**2, nuclear magnetic moments (NMagM)
  in nuclear magnetons)

  Atom         1           2           3           4           5           6           7           8           9          10
 IAtWgt=          16          12          14          12          12          12          12          12          12          14
 AtmWgt=  15.9949146  12.0000000  14.0030740  12.0000000  12.0000000  12.0000000  12.0000000  12.0000000  12.0000000  14.0030740
 NucSpn=           0           0           2           0           0           0           0           0           0           2
 AtZEff=   0.0000000   0.0000000   0.0000000   0.0000000   0.0000000   0.0000000   0.0000000   0.0000000   0.0000000   0.0000000
 NQMom=    0.0000000   0.0000000   2.0440000   0.0000000   0.0000000   0.0000000   0.0000000   0.0000000   0.0000000   2.0440000
 NMagM=    0.0000000   0.0000000   0.4037610   0.0000000   0.0000000   0.0000000   0.0000000   0.0000000   0.0000000   0.4037610
 AtZNuc=   8.0000000   6.0000000   7.0000000   6.0000000   6.0000000   6.0000000   6.0000000   6.0000000   6.0000000   7.0000000

  Atom        11          12          13          14          15          16          17          18          19          20
 IAtWgt=          12          12          12          16          12          14           1          12          12          16
 AtmWgt=  12.0000000  12.0000000  12.0000000  15.9949146  12.0000000  14.0030740   1.0078250  12.0000000  12.0000000  15.9949146
 NucSpn=           0           0           0           0           0           2           1           0           0           0
 AtZEff=   0.0000000   0.0000000   0.0000000   0.0000000   0.0000000   0.0000000   0.0000000   0.0000000   0.0000000   0.0000000
 NQMom=    0.0000000   0.0000000   0.0000000   0.0000000   0.0000000   2.0440000   0.0000000   0.0000000   0.0000000   0.0000000
 NMagM=    0.0000000   0.0000000   0.0000000   0.0000000   0.0000000   0.4037610   2.7928460   0.0000000   0.0000000   0.0000000
 AtZNuc=   6.0000000   6.0000000   6.0000000   8.0000000   6.0000000   7.0000000   1.0000000   6.0000000   6.0000000   8.0000000

  Atom        21          22          23          24          25          26          27          28          29          30
 IAtWgt=          12          12          16          12          12          12          12          12          12          12
 AtmWgt=  12.0000000  12.0000000  15.9949146  12.0000000  12.0000000  12.0000000  12.0000000  12.0000000  12.0000000  12.0000000
 NucSpn=           0           0           0           0           0           0           0           0           0           0
 AtZEff=   0.0000000   0.0000000   0.0000000   0.0000000   0.0000000   0.0000000   0.0000000   0.0000000   0.0000000   0.0000000
 NQMom=    0.0000000   0.0000000   0.0000000   0.0000000   0.0000000   0.0000000   0.0000000   0.0000000   0.0000000   0.0000000
 NMagM=    0.0000000   0.0000000   0.0000000   0.0000000   0.0000000   0.0000000   0.0000000   0.0000000   0.0000000   0.0000000
 AtZNuc=   6.0000000   6.0000000   8.0000000   6.0000000   6.0000000   6.0000000   6.0000000   6.0000000   6.0000000   6.0000000

  Atom        31          32          33          34          35          36          37          38          39          40
 IAtWgt=           1           1           1           1           1           1           1           1           1           1
 AtmWgt=   1.0078250   1.0078250   1.0078250   1.0078250   1.0078250   1.0078250   1.0078250   1.0078250   1.0078250   1.0078250
 NucSpn=           1           1           1           1           1           1           1           1           1           1
 AtZEff=   0.0000000   0.0000000   0.0000000   0.0000000   0.0000000   0.0000000   0.0000000   0.0000000   0.0000000   0.0000000
 NQMom=    0.0000000   0.0000000   0.0000000   0.0000000   0.0000000   0.0000000   0.0000000   0.0000000   0.0000000   0.0000000
 NMagM=    2.7928460   2.7928460   2.7928460   2.7928460   2.7928460   2.7928460   2.7928460   2.7928460   2.7928460   2.7928460
 AtZNuc=   1.0000000   1.0000000   1.0000000   1.0000000   1.0000000   1.0000000   1.0000000   1.0000000   1.0000000   1.0000000

  Atom        41          42          43          44          45          46          47          48          49          50
 IAtWgt=           1           1           1           1           1           1           1           1           1           1
 AtmWgt=   1.0078250   1.0078250   1.0078250   1.0078250   1.0078250   1.0078250   1.0078250   1.0078250   1.0078250   1.0078250
 NucSpn=           1           1           1           1           1           1           1           1           1           1
 AtZEff=   0.0000000   0.0000000   0.0000000   0.0000000   0.0000000   0.0000000   0.0000000   0.0000000   0.0000000   0.0000000
 NQMom=    0.0000000   0.0000000   0.0000000   0.0000000   0.0000000   0.0000000   0.0000000   0.0000000   0.0000000   0.0000000
 NMagM=    2.7928460   2.7928460   2.7928460   2.7928460   2.7928460   2.7928460   2.7928460   2.7928460   2.7928460   2.7928460
 AtZNuc=   1.0000000   1.0000000   1.0000000   1.0000000   1.0000000   1.0000000   1.0000000   1.0000000   1.0000000   1.0000000

  Atom        51          52
 IAtWgt=           1           1
 AtmWgt=   1.0078250   1.0078250
 NucSpn=           1           1
 AtZEff=   0.0000000   0.0000000
 NQMom=    0.0000000   0.0000000
 NMagM=    2.7928460   2.7928460
 AtZNuc=   1.0000000   1.0000000
 Leave Link  101 at Tue Sep 26 15:16:27 2023, MaxMem=  2147483648 cpu:              11.0 elap:               0.7
 (Enter /gpfs1/apps/software/Gaussian16/AVX2/g16/l103.exe)

 GradGradGradGradGradGradGradGradGradGradGradGradGradGradGradGradGradGrad
 Berny optimization.
 Initialization pass.
                           ----------------------------
                           !    Initial Parameters    !
                           ! (Angstroms and Degrees)  !
 --------------------------                            --------------------------
 ! Name  Definition              Value          Derivative Info.                !
 --------------------------------------------------------------------------------
 ! R1    R(1,2)                  1.2077         calculate D2E/DX2 analytically  !
 ! R2    R(2,3)                  1.3814         calculate D2E/DX2 analytically  !
 ! R3    R(2,13)                 1.5464         calculate D2E/DX2 analytically  !
 ! R4    R(3,4)                  1.4084         calculate D2E/DX2 analytically  !
 ! R5    R(3,10)                 1.3924         calculate D2E/DX2 analytically  !
 ! R6    R(4,5)                  1.4032         calculate D2E/DX2 analytically  !
 ! R7    R(4,9)                  1.4039         calculate D2E/DX2 analytically  !
 ! R8    R(5,6)                  1.3923         calculate D2E/DX2 analytically  !
 ! R9    R(5,31)                 1.0879         calculate D2E/DX2 analytically  !
 ! R10   R(6,7)                  1.3949         calculate D2E/DX2 analytically  !
 ! R11   R(6,32)                 1.0917         calculate D2E/DX2 analytically  !
 ! R12   R(7,8)                  1.3942         calculate D2E/DX2 analytically  !
 ! R13   R(7,33)                 1.0909         calculate D2E/DX2 analytically  !
 ! R14   R(8,9)                  1.3936         calculate D2E/DX2 analytically  !
 ! R15   R(8,34)                 1.0917         calculate D2E/DX2 analytically  !
 ! R16   R(9,35)                 1.0864         calculate D2E/DX2 analytically  !
 ! R17   R(10,11)                1.2783         calculate D2E/DX2 analytically  !
 ! R18   R(11,12)                1.4898         calculate D2E/DX2 analytically  !
 ! R19   R(11,13)                1.5282         calculate D2E/DX2 analytically  !
 ! R20   R(12,36)                1.102          calculate D2E/DX2 analytically  !
 ! R21   R(12,37)                1.1028         calculate D2E/DX2 analytically  !
 ! R22   R(12,38)                1.097          calculate D2E/DX2 analytically  !
 ! R23   R(13,14)                1.3667         calculate D2E/DX2 analytically  !
 ! R24   R(13,24)                1.5494         calculate D2E/DX2 analytically  !
 ! R25   R(15,16)                1.5347         calculate D2E/DX2 analytically  !
 ! R26   R(15,23)                1.1927         calculate D2E/DX2 analytically  !
 ! R27   R(15,24)                1.5301         calculate D2E/DX2 analytically  !
 ! R28   R(16,17)                1.0307         calculate D2E/DX2 analytically  !
 ! R29   R(16,18)                1.4938         calculate D2E/DX2 analytically  !
 ! R30   R(16,22)                1.4916         calculate D2E/DX2 analytically  !
 ! R31   R(18,19)                1.5166         calculate D2E/DX2 analytically  !
 ! R32   R(18,39)                1.096          calculate D2E/DX2 analytically  !
 ! R33   R(18,40)                1.0965         calculate D2E/DX2 analytically  !
 ! R34   R(19,20)                1.4062         calculate D2E/DX2 analytically  !
 ! R35   R(19,41)                1.0972         calculate D2E/DX2 analytically  !
 ! R36   R(19,42)                1.1076         calculate D2E/DX2 analytically  !
 ! R37   R(20,21)                1.4013         calculate D2E/DX2 analytically  !
 ! R38   R(21,22)                1.5212         calculate D2E/DX2 analytically  !
 ! R39   R(21,43)                1.0974         calculate D2E/DX2 analytically  !
 ! R40   R(21,44)                1.1076         calculate D2E/DX2 analytically  !
 ! R41   R(22,45)                1.0989         calculate D2E/DX2 analytically  !
 ! R42   R(22,46)                1.0967         calculate D2E/DX2 analytically  !
 ! R43   R(24,25)                1.5132         calculate D2E/DX2 analytically  !
 ! R44   R(24,47)                1.1035         calculate D2E/DX2 analytically  !
 ! R45   R(25,26)                1.4024         calculate D2E/DX2 analytically  !
 ! R46   R(25,30)                1.4004         calculate D2E/DX2 analytically  !
 ! R47   R(26,27)                1.3937         calculate D2E/DX2 analytically  !
 ! R48   R(26,48)                1.0931         calculate D2E/DX2 analytically  !
 ! R49   R(27,28)                1.3954         calculate D2E/DX2 analytically  !
 ! R50   R(27,49)                1.0915         calculate D2E/DX2 analytically  !
 ! R51   R(28,29)                1.3938         calculate D2E/DX2 analytically  !
 ! R52   R(28,50)                1.0912         calculate D2E/DX2 analytically  !
 ! R53   R(29,30)                1.3957         calculate D2E/DX2 analytically  !
 ! R54   R(29,51)                1.0913         calculate D2E/DX2 analytically  !
 ! R55   R(30,52)                1.0919         calculate D2E/DX2 analytically  !
 ! A1    A(1,2,3)              127.4369         calculate D2E/DX2 analytically  !
 ! A2    A(1,2,13)             126.3542         calculate D2E/DX2 analytically  !
 ! A3    A(3,2,13)             106.2086         calculate D2E/DX2 analytically  !
 ! A4    A(2,3,4)              129.0232         calculate D2E/DX2 analytically  !
 ! A5    A(2,3,10)             112.0597         calculate D2E/DX2 analytically  !
 ! A6    A(4,3,10)             118.9128         calculate D2E/DX2 analytically  !
 ! A7    A(3,4,5)              119.4377         calculate D2E/DX2 analytically  !
 ! A8    A(3,4,9)              120.9579         calculate D2E/DX2 analytically  !
 ! A9    A(5,4,9)              119.6044         calculate D2E/DX2 analytically  !
 ! A10   A(4,5,6)              119.9238         calculate D2E/DX2 analytically  !
 ! A11   A(4,5,31)             119.3379         calculate D2E/DX2 analytically  !
 ! A12   A(6,5,31)             120.7382         calculate D2E/DX2 analytically  !
 ! A13   A(5,6,7)              120.7954         calculate D2E/DX2 analytically  !
 ! A14   A(5,6,32)             119.0761         calculate D2E/DX2 analytically  !
 ! A15   A(7,6,32)             120.1284         calculate D2E/DX2 analytically  !
 ! A16   A(6,7,8)              119.0179         calculate D2E/DX2 analytically  !
 ! A17   A(6,7,33)             120.496          calculate D2E/DX2 analytically  !
 ! A18   A(8,7,33)             120.4861         calculate D2E/DX2 analytically  !
 ! A19   A(7,8,9)              121.1233         calculate D2E/DX2 analytically  !
 ! A20   A(7,8,34)             120.0639         calculate D2E/DX2 analytically  !
 ! A21   A(9,8,34)             118.8127         calculate D2E/DX2 analytically  !
 ! A22   A(4,9,8)              119.5348         calculate D2E/DX2 analytically  !
 ! A23   A(4,9,35)             119.8861         calculate D2E/DX2 analytically  !
 ! A24   A(8,9,35)             120.5787         calculate D2E/DX2 analytically  !
 ! A25   A(3,10,11)            109.4619         calculate D2E/DX2 analytically  !
 ! A26   A(10,11,12)           121.0358         calculate D2E/DX2 analytically  !
 ! A27   A(10,11,13)           113.0398         calculate D2E/DX2 analytically  !
 ! A28   A(12,11,13)           125.694          calculate D2E/DX2 analytically  !
 ! A29   A(11,12,36)           110.8312         calculate D2E/DX2 analytically  !
 ! A30   A(11,12,37)           110.0111         calculate D2E/DX2 analytically  !
 ! A31   A(11,12,38)           110.1792         calculate D2E/DX2 analytically  !
 ! A32   A(36,12,37)           108.9441         calculate D2E/DX2 analytically  !
 ! A33   A(36,12,38)           108.9553         calculate D2E/DX2 analytically  !
 ! A34   A(37,12,38)           107.8543         calculate D2E/DX2 analytically  !
 ! A35   A(2,13,11)             99.022          calculate D2E/DX2 analytically  !
 ! A36   A(2,13,14)            112.4789         calculate D2E/DX2 analytically  !
 ! A37   A(2,13,24)            109.8663         calculate D2E/DX2 analytically  !
 ! A38   A(11,13,14)           113.3377         calculate D2E/DX2 analytically  !
 ! A39   A(11,13,24)           119.5095         calculate D2E/DX2 analytically  !
 ! A40   A(14,13,24)           102.9346         calculate D2E/DX2 analytically  !
 ! A41   A(16,15,23)           115.8576         calculate D2E/DX2 analytically  !
 ! A42   A(16,15,24)           117.7823         calculate D2E/DX2 analytically  !
 ! A43   A(23,15,24)           125.196          calculate D2E/DX2 analytically  !
 ! A44   A(15,16,17)           102.9984         calculate D2E/DX2 analytically  !
 ! A45   A(15,16,18)           109.6898         calculate D2E/DX2 analytically  !
 ! A46   A(15,16,22)           115.0084         calculate D2E/DX2 analytically  !
 ! A47   A(17,16,18)           105.4235         calculate D2E/DX2 analytically  !
 ! A48   A(17,16,22)           112.2957         calculate D2E/DX2 analytically  !
 ! A49   A(18,16,22)           110.7692         calculate D2E/DX2 analytically  !
 ! A50   A(16,18,19)           109.17           calculate D2E/DX2 analytically  !
 ! A51   A(16,18,39)           107.0706         calculate D2E/DX2 analytically  !
 ! A52   A(16,18,40)           106.3953         calculate D2E/DX2 analytically  !
 ! A53   A(19,18,39)           111.4195         calculate D2E/DX2 analytically  !
 ! A54   A(19,18,40)           112.3025         calculate D2E/DX2 analytically  !
 ! A55   A(39,18,40)           110.216          calculate D2E/DX2 analytically  !
 ! A56   A(18,19,20)           111.2507         calculate D2E/DX2 analytically  !
 ! A57   A(18,19,41)           109.1044         calculate D2E/DX2 analytically  !
 ! A58   A(18,19,42)           110.0414         calculate D2E/DX2 analytically  !
 ! A59   A(20,19,41)           107.9568         calculate D2E/DX2 analytically  !
 ! A60   A(20,19,42)           110.4041         calculate D2E/DX2 analytically  !
 ! A61   A(41,19,42)           107.9928         calculate D2E/DX2 analytically  !
 ! A62   A(19,20,21)           111.281          calculate D2E/DX2 analytically  !
 ! A63   A(20,21,22)           111.6822         calculate D2E/DX2 analytically  !
 ! A64   A(20,21,43)           108.1693         calculate D2E/DX2 analytically  !
 ! A65   A(20,21,44)           110.5238         calculate D2E/DX2 analytically  !
 ! A66   A(22,21,43)           108.9293         calculate D2E/DX2 analytically  !
 ! A67   A(22,21,44)           109.3751         calculate D2E/DX2 analytically  !
 ! A68   A(43,21,44)           108.0715         calculate D2E/DX2 analytically  !
 ! A69   A(16,22,21)           109.1589         calculate D2E/DX2 analytically  !
 ! A70   A(16,22,45)           107.1203         calculate D2E/DX2 analytically  !
 ! A71   A(16,22,46)           108.8715         calculate D2E/DX2 analytically  !
 ! A72   A(21,22,45)           111.0898         calculate D2E/DX2 analytically  !
 ! A73   A(21,22,46)           110.8509         calculate D2E/DX2 analytically  !
 ! A74   A(45,22,46)           109.6497         calculate D2E/DX2 analytically  !
 ! A75   A(13,24,15)           100.0554         calculate D2E/DX2 analytically  !
 ! A76   A(13,24,25)           124.1604         calculate D2E/DX2 analytically  !
 ! A77   A(13,24,47)           103.696          calculate D2E/DX2 analytically  !
 ! A78   A(15,24,25)           117.5095         calculate D2E/DX2 analytically  !
 ! A79   A(15,24,47)           100.5544         calculate D2E/DX2 analytically  !
 ! A80   A(25,24,47)           107.7631         calculate D2E/DX2 analytically  !
 ! A81   A(24,25,26)           120.6646         calculate D2E/DX2 analytically  !
 ! A82   A(24,25,30)           120.7047         calculate D2E/DX2 analytically  !
 ! A83   A(26,25,30)           118.5025         calculate D2E/DX2 analytically  !
 ! A84   A(25,26,27)           120.844          calculate D2E/DX2 analytically  !
 ! A85   A(25,26,48)           119.8373         calculate D2E/DX2 analytically  !
 ! A86   A(27,26,48)           119.3175         calculate D2E/DX2 analytically  !
 ! A87   A(26,27,28)           120.1713         calculate D2E/DX2 analytically  !
 ! A88   A(26,27,49)           119.6444         calculate D2E/DX2 analytically  !
 ! A89   A(28,27,49)           120.1827         calculate D2E/DX2 analytically  !
 ! A90   A(27,28,29)           119.4554         calculate D2E/DX2 analytically  !
 ! A91   A(27,28,50)           120.2678         calculate D2E/DX2 analytically  !
 ! A92   A(29,28,50)           120.2741         calculate D2E/DX2 analytically  !
 ! A93   A(28,29,30)           120.3651         calculate D2E/DX2 analytically  !
 ! A94   A(28,29,51)           120.1741         calculate D2E/DX2 analytically  !
 ! A95   A(30,29,51)           119.4601         calculate D2E/DX2 analytically  !
 ! A96   A(25,30,29)           120.6401         calculate D2E/DX2 analytically  !
 ! A97   A(25,30,52)           120.3406         calculate D2E/DX2 analytically  !
 ! A98   A(29,30,52)           119.0138         calculate D2E/DX2 analytically  !
 ! D1    D(1,2,3,4)              1.5138         calculate D2E/DX2 analytically  !
 ! D2    D(1,2,3,10)          -177.7069         calculate D2E/DX2 analytically  !
 ! D3    D(13,2,3,4)          -178.2728         calculate D2E/DX2 analytically  !
 ! D4    D(13,2,3,10)            2.5065         calculate D2E/DX2 analytically  !
 ! D5    D(1,2,13,11)          176.2791         calculate D2E/DX2 analytically  !
 ! D6    D(1,2,13,14)          -63.7345         calculate D2E/DX2 analytically  !
 ! D7    D(1,2,13,24)           50.2874         calculate D2E/DX2 analytically  !
 ! D8    D(3,2,13,11)           -3.9313         calculate D2E/DX2 analytically  !
 ! D9    D(3,2,13,14)          116.0551         calculate D2E/DX2 analytically  !
 ! D10   D(3,2,13,24)         -129.923          calculate D2E/DX2 analytically  !
 ! D11   D(2,3,4,5)           -173.0229         calculate D2E/DX2 analytically  !
 ! D12   D(2,3,4,9)              6.9579         calculate D2E/DX2 analytically  !
 ! D13   D(10,3,4,5)             6.152          calculate D2E/DX2 analytically  !
 ! D14   D(10,3,4,9)          -173.8672         calculate D2E/DX2 analytically  !
 ! D15   D(2,3,10,11)            0.475          calculate D2E/DX2 analytically  !
 ! D16   D(4,3,10,11)         -178.8334         calculate D2E/DX2 analytically  !
 ! D17   D(3,4,5,6)            179.837          calculate D2E/DX2 analytically  !
 ! D18   D(3,4,5,31)            -0.2916         calculate D2E/DX2 analytically  !
 ! D19   D(9,4,5,6)             -0.1441         calculate D2E/DX2 analytically  !
 ! D20   D(9,4,5,31)           179.7273         calculate D2E/DX2 analytically  !
 ! D21   D(3,4,9,8)           -179.7452         calculate D2E/DX2 analytically  !
 ! D22   D(3,4,9,35)             0.0315         calculate D2E/DX2 analytically  !
 ! D23   D(5,4,9,8)              0.2355         calculate D2E/DX2 analytically  !
 ! D24   D(5,4,9,35)          -179.9878         calculate D2E/DX2 analytically  !
 ! D25   D(4,5,6,7)             -0.0468         calculate D2E/DX2 analytically  !
 ! D26   D(4,5,6,32)          -180.0            calculate D2E/DX2 analytically  !
 ! D27   D(31,5,6,7)          -179.9163         calculate D2E/DX2 analytically  !
 ! D28   D(31,5,6,32)            0.1304         calculate D2E/DX2 analytically  !
 ! D29   D(5,6,7,8)              0.1436         calculate D2E/DX2 analytically  !
 ! D30   D(5,6,7,33)          -179.9388         calculate D2E/DX2 analytically  !
 ! D31   D(32,6,7,8)          -179.9037         calculate D2E/DX2 analytically  !
 ! D32   D(32,6,7,33)            0.0139         calculate D2E/DX2 analytically  !
 ! D33   D(6,7,8,9)             -0.0497         calculate D2E/DX2 analytically  !
 ! D34   D(6,7,8,34)           179.8209         calculate D2E/DX2 analytically  !
 ! D35   D(33,7,8,9)          -179.9673         calculate D2E/DX2 analytically  !
 ! D36   D(33,7,8,34)           -0.0967         calculate D2E/DX2 analytically  !
 ! D37   D(7,8,9,4)             -0.1396         calculate D2E/DX2 analytically  !
 ! D38   D(7,8,9,35)          -179.9147         calculate D2E/DX2 analytically  !
 ! D39   D(34,8,9,4)           179.9883         calculate D2E/DX2 analytically  !
 ! D40   D(34,8,9,35)            0.2132         calculate D2E/DX2 analytically  !
 ! D41   D(3,10,11,12)        -178.1913         calculate D2E/DX2 analytically  !
 ! D42   D(3,10,11,13)          -3.4035         calculate D2E/DX2 analytically  !
 ! D43   D(10,11,12,36)       -129.0308         calculate D2E/DX2 analytically  !
 ! D44   D(10,11,12,37)        110.4226         calculate D2E/DX2 analytically  !
 ! D45   D(10,11,12,38)         -8.3596         calculate D2E/DX2 analytically  !
 ! D46   D(13,11,12,36)         56.8774         calculate D2E/DX2 analytically  !
 ! D47   D(13,11,12,37)        -63.6692         calculate D2E/DX2 analytically  !
 ! D48   D(13,11,12,38)        177.5486         calculate D2E/DX2 analytically  !
 ! D49   D(10,11,13,2)           4.5707         calculate D2E/DX2 analytically  !
 ! D50   D(10,11,13,14)       -114.7786         calculate D2E/DX2 analytically  !
 ! D51   D(10,11,13,24)        123.599          calculate D2E/DX2 analytically  !
 ! D52   D(12,11,13,2)         179.0708         calculate D2E/DX2 analytically  !
 ! D53   D(12,11,13,14)         59.7215         calculate D2E/DX2 analytically  !
 ! D54   D(12,11,13,24)        -61.901          calculate D2E/DX2 analytically  !
 ! D55   D(2,13,24,15)        -133.5755         calculate D2E/DX2 analytically  !
 ! D56   D(2,13,24,25)          93.0123         calculate D2E/DX2 analytically  !
 ! D57   D(2,13,24,47)         -30.0025         calculate D2E/DX2 analytically  !
 ! D58   D(11,13,24,15)        113.0899         calculate D2E/DX2 analytically  !
 ! D59   D(11,13,24,25)        -20.3223         calculate D2E/DX2 analytically  !
 ! D60   D(11,13,24,47)       -143.3371         calculate D2E/DX2 analytically  !
 ! D61   D(14,13,24,15)        -13.5685         calculate D2E/DX2 analytically  !
 ! D62   D(14,13,24,25)       -146.9806         calculate D2E/DX2 analytically  !
 ! D63   D(14,13,24,47)         90.0046         calculate D2E/DX2 analytically  !
 ! D64   D(23,15,16,17)       -151.4558         calculate D2E/DX2 analytically  !
 ! D65   D(23,15,16,18)        -39.5858         calculate D2E/DX2 analytically  !
 ! D66   D(23,15,16,22)         86.0423         calculate D2E/DX2 analytically  !
 ! D67   D(24,15,16,17)         40.2236         calculate D2E/DX2 analytically  !
 ! D68   D(24,15,16,18)        152.0936         calculate D2E/DX2 analytically  !
 ! D69   D(24,15,16,22)        -82.2783         calculate D2E/DX2 analytically  !
 ! D70   D(16,15,24,13)        -63.5079         calculate D2E/DX2 analytically  !
 ! D71   D(16,15,24,25)         73.8261         calculate D2E/DX2 analytically  !
 ! D72   D(16,15,24,47)       -169.6274         calculate D2E/DX2 analytically  !
 ! D73   D(23,15,24,13)        129.3728         calculate D2E/DX2 analytically  !
 ! D74   D(23,15,24,25)        -93.2933         calculate D2E/DX2 analytically  !
 ! D75   D(23,15,24,47)         23.2532         calculate D2E/DX2 analytically  !
 ! D76   D(15,16,18,19)       -177.753          calculate D2E/DX2 analytically  !
 ! D77   D(15,16,18,39)         61.5027         calculate D2E/DX2 analytically  !
 ! D78   D(15,16,18,40)        -56.3474         calculate D2E/DX2 analytically  !
 ! D79   D(17,16,18,19)        -67.477          calculate D2E/DX2 analytically  !
 ! D80   D(17,16,18,39)        171.7787         calculate D2E/DX2 analytically  !
 ! D81   D(17,16,18,40)         53.9287         calculate D2E/DX2 analytically  !
 ! D82   D(22,16,18,19)         54.2278         calculate D2E/DX2 analytically  !
 ! D83   D(22,16,18,39)        -66.5165         calculate D2E/DX2 analytically  !
 ! D84   D(22,16,18,40)        175.6335         calculate D2E/DX2 analytically  !
 ! D85   D(15,16,22,21)       -178.6706         calculate D2E/DX2 analytically  !
 ! D86   D(15,16,22,45)        -58.2987         calculate D2E/DX2 analytically  !
 ! D87   D(15,16,22,46)         60.2            calculate D2E/DX2 analytically  !
 ! D88   D(17,16,22,21)         63.9729         calculate D2E/DX2 analytically  !
 ! D89   D(17,16,22,45)       -175.6552         calculate D2E/DX2 analytically  !
 ! D90   D(17,16,22,46)        -57.1565         calculate D2E/DX2 analytically  !
 ! D91   D(18,16,22,21)        -53.6033         calculate D2E/DX2 analytically  !
 ! D92   D(18,16,22,45)         66.7686         calculate D2E/DX2 analytically  !
 ! D93   D(18,16,22,46)       -174.7327         calculate D2E/DX2 analytically  !
 ! D94   D(16,18,19,20)        -57.3466         calculate D2E/DX2 analytically  !
 ! D95   D(16,18,19,41)       -176.3442         calculate D2E/DX2 analytically  !
 ! D96   D(16,18,19,42)         65.3405         calculate D2E/DX2 analytically  !
 ! D97   D(39,18,19,20)         60.702          calculate D2E/DX2 analytically  !
 ! D98   D(39,18,19,41)        -58.2956         calculate D2E/DX2 analytically  !
 ! D99   D(39,18,19,42)       -176.6109         calculate D2E/DX2 analytically  !
 ! D100  D(40,18,19,20)       -175.0954         calculate D2E/DX2 analytically  !
 ! D101  D(40,18,19,41)         65.907          calculate D2E/DX2 analytically  !
 ! D102  D(40,18,19,42)        -52.4083         calculate D2E/DX2 analytically  !
 ! D103  D(18,19,20,21)         61.0006         calculate D2E/DX2 analytically  !
 ! D104  D(41,19,20,21)       -179.3174         calculate D2E/DX2 analytically  !
 ! D105  D(42,19,20,21)        -61.4774         calculate D2E/DX2 analytically  !
 ! D106  D(19,20,21,22)        -60.5929         calculate D2E/DX2 analytically  !
 ! D107  D(19,20,21,43)        179.5455         calculate D2E/DX2 analytically  !
 ! D108  D(19,20,21,44)         61.4158         calculate D2E/DX2 analytically  !
 ! D109  D(20,21,22,16)         56.4687         calculate D2E/DX2 analytically  !
 ! D110  D(20,21,22,45)        -61.4362         calculate D2E/DX2 analytically  !
 ! D111  D(20,21,22,46)        176.3853         calculate D2E/DX2 analytically  !
 ! D112  D(43,21,22,16)        175.8821         calculate D2E/DX2 analytically  !
 ! D113  D(43,21,22,45)         57.9772         calculate D2E/DX2 analytically  !
 ! D114  D(43,21,22,46)        -64.2013         calculate D2E/DX2 analytically  !
 ! D115  D(44,21,22,16)        -66.1986         calculate D2E/DX2 analytically  !
 ! D116  D(44,21,22,45)        175.8966         calculate D2E/DX2 analytically  !
 ! D117  D(44,21,22,46)         53.7181         calculate D2E/DX2 analytically  !
 ! D118  D(13,24,25,26)        155.6979         calculate D2E/DX2 analytically  !
 ! D119  D(13,24,25,30)        -28.478          calculate D2E/DX2 analytically  !
 ! D120  D(15,24,25,26)         29.4486         calculate D2E/DX2 analytically  !
 ! D121  D(15,24,25,30)       -154.7273         calculate D2E/DX2 analytically  !
 ! D122  D(47,24,25,26)        -83.1139         calculate D2E/DX2 analytically  !
 ! D123  D(47,24,25,30)         92.7103         calculate D2E/DX2 analytically  !
 ! D124  D(24,25,26,27)        177.5533         calculate D2E/DX2 analytically  !
 ! D125  D(24,25,26,48)         -2.0593         calculate D2E/DX2 analytically  !
 ! D126  D(30,25,26,27)          1.6388         calculate D2E/DX2 analytically  !
 ! D127  D(30,25,26,48)       -177.9738         calculate D2E/DX2 analytically  !
 ! D128  D(24,25,30,29)       -177.3795         calculate D2E/DX2 analytically  !
 ! D129  D(24,25,30,52)          1.7635         calculate D2E/DX2 analytically  !
 ! D130  D(26,25,30,29)         -1.4667         calculate D2E/DX2 analytically  !
 ! D131  D(26,25,30,52)        177.6763         calculate D2E/DX2 analytically  !
 ! D132  D(25,26,27,28)         -0.6614         calculate D2E/DX2 analytically  !
 ! D133  D(25,26,27,49)        179.7959         calculate D2E/DX2 analytically  !
 ! D134  D(48,26,27,28)        178.9532         calculate D2E/DX2 analytically  !
 ! D135  D(48,26,27,49)         -0.5895         calculate D2E/DX2 analytically  !
 ! D136  D(26,27,28,29)         -0.5157         calculate D2E/DX2 analytically  !
 ! D137  D(26,27,28,50)       -179.9156         calculate D2E/DX2 analytically  !
 ! D138  D(49,27,28,29)        179.0245         calculate D2E/DX2 analytically  !
 ! D139  D(49,27,28,50)         -0.3754         calculate D2E/DX2 analytically  !
 ! D140  D(27,28,29,30)          0.6849         calculate D2E/DX2 analytically  !
 ! D141  D(27,28,29,51)       -179.0109         calculate D2E/DX2 analytically  !
 ! D142  D(50,28,29,30)       -179.9153         calculate D2E/DX2 analytically  !
 ! D143  D(50,28,29,51)          0.389          calculate D2E/DX2 analytically  !
 ! D144  D(28,29,30,25)          0.321          calculate D2E/DX2 analytically  !
 ! D145  D(28,29,30,52)       -178.8332         calculate D2E/DX2 analytically  !
 ! D146  D(51,29,30,25)       -179.9811         calculate D2E/DX2 analytically  !
 ! D147  D(51,29,30,52)          0.8647         calculate D2E/DX2 analytically  !
 --------------------------------------------------------------------------------
 Trust Radius=3.00D-01 FncErr=1.00D-07 GrdErr=1.00D-06 EigMax=2.50D+02 EigMin=1.00D-04
 Number of steps in this run=    310 maximum allowed number of steps=    312.
 Search for a saddle point of order  1.
 GradGradGradGradGradGradGradGradGradGradGradGradGradGradGradGradGradGrad

 Leave Link  103 at Tue Sep 26 15:16:27 2023, MaxMem=  2147483648 cpu:               0.3 elap:               0.0
 (Enter /gpfs1/apps/software/Gaussian16/AVX2/g16/l202.exe)
 Stoichiometry    C22H23N3O4
 Framework group  C1[X(C22H23N3O4)]
 Deg. of freedom   150
 Full point group                 C1      NOp   1
 Largest Abelian subgroup         C1      NOp   1
 Largest concise Abelian subgroup C1      NOp   1
                         Standard orientation:                         
 ---------------------------------------------------------------------
 Center     Atomic      Atomic             Coordinates (Angstroms)
 Number     Number       Type             X           Y           Z
 ---------------------------------------------------------------------
      1          8           0        1.917225   -0.584220    2.127394
      2          6           0        1.610341   -0.584023    0.959338
      3          7           0        2.457283   -0.548308   -0.131428
      4          6           0        3.865270   -0.532847   -0.160736
      5          6           0        4.527593   -0.347315   -1.383764
      6          6           0        5.919117   -0.326915   -1.423918
      7          6           0        6.669602   -0.488176   -0.259256
      8          6           0        6.005923   -0.674186    0.952611
      9          6           0        4.613942   -0.699842    1.015046
     10          7           0        1.758421   -0.508440   -1.335056
     11          6           0        0.502207   -0.505895   -1.098283
     12          6           0       -0.489025   -0.506789   -2.210430
     13          6           0        0.173668   -0.629797    0.389000
     14          8           0       -0.477276   -1.789264    0.704921
     15          6           0       -1.947721   -0.369357    1.389796
     16          7           0       -2.745736   -0.943946    0.211533
     17          1           0       -2.008486   -1.254412   -0.438338
     18          6           0       -3.448502   -2.190546    0.639873
     19          6           0       -4.187737   -2.778335   -0.546823
     20          8           0       -5.096399   -1.853082   -1.090447
     21          6           0       -4.438581   -0.704510   -1.550684
     22          6           0       -3.699658    0.007916   -0.427908
     23          8           0       -2.480019   -0.426240    2.455565
     24          6           0       -0.698308    0.454337    1.070861
     25          6           0       -0.902338    1.849734    0.522098
     26          6           0       -2.041617    2.592941    0.863222
     27          6           0       -2.208919    3.896996    0.400854
     28          6           0       -1.231657    4.487471   -0.401241
     29          6           0       -0.083953    3.766355   -0.726144
     30          6           0        0.081866    2.459178   -0.265935
     31          1           0        3.943182   -0.222797   -2.292916
     32          1           0        6.420118   -0.181629   -2.382906
     33          1           0        7.759752   -0.470381   -0.296215
     34          1           0        6.576414   -0.805058    1.874110
     35          1           0        4.105844   -0.844020    1.964457
     36          1           0       -1.232695    0.294806   -2.073214
     37          1           0       -1.011613   -1.477144   -2.249404
     38          1           0        0.019951   -0.360048   -3.171114
     39          1           0       -4.139541   -1.910486    1.443176
     40          1           0       -2.674609   -2.865700    1.024017
     41          1           0       -4.756264   -3.656693   -0.216546
     42          1           0       -3.465078   -3.108835   -1.318406
     43          1           0       -5.190785   -0.024096   -1.969739
     44          1           0       -3.722882   -0.963110   -2.355464
     45          1           0       -4.395841    0.342322    0.353836
     46          1           0       -3.138147    0.867232   -0.813834
     47          1           0       -0.256669    0.549750    2.077646
     48          1           0       -2.807825    2.150121    1.504818
     49          1           0       -3.104896    4.456458    0.675697
     50          1           0       -1.360392    5.508875   -0.762990
     51          1           0        0.695215    4.222427   -1.339282
     52          1           0        0.998148    1.921338   -0.517652
 ---------------------------------------------------------------------
 Rotational constants (GHZ):           0.2838092           0.1067441           0.0930507
 Leave Link  202 at Tue Sep 26 15:16:27 2023, MaxMem=  2147483648 cpu:               0.0 elap:               0.0
 (Enter /gpfs1/apps/software/Gaussian16/AVX2/g16/l301.exe)
 General basis read from cards:  (5D, 7F)
 Centers:       2      4      5      6      7      8      9     11     12     13
 Centers:      15     18     19     21     22     24     25     26     27     28
 Centers:      29     30     17     31     32     33     34     35     36     37
 Centers:      38     39     40     41     42     43     44     45     46     47
 Centers:      48     49     50     51     52      3     10     16      1     14
 Centers:      20     23
 def2SVP
 ****
 Ernie: Thresh=  0.10000D-02 Tol=  0.10000D-05 Strict=F.
 There are   550 symmetry adapted cartesian basis functions of A   symmetry.
 There are   521 symmetry adapted basis functions of A   symmetry.
   521 basis functions,   886 primitive gaussians,   550 cartesian basis functions
   104 alpha electrons      104 beta electrons
       nuclear repulsion energy      2851.9336087766 Hartrees.
 IExCor= 4336 DFT=T Ex+Corr=M062X ExCW=0 ScaHFX=  0.540000
 ScaDFX=  1.000000  1.000000  1.000000  1.000000 ScalE2=  1.000000  1.000000
 IRadAn=      5 IRanWt=     -1 IRanGd=            0 ICorTp=0 IEmpDi=  4
 NAtoms=   52 NActive=   52 NUniq=   52 SFac= 1.00D+00 NAtFMM=   60 NAOKFM=F Big=F
 Integral buffers will be    131072 words long.
 Raffenetti 2 integral format.
 Two-electron integral symmetry is turned on.
 Force inversion solution in PCM.
 ------------------------------------------------------------------------------
 Polarizable Continuum Model (PCM)
 =================================
 Model                : PCM.
 Atomic radii         : SMD-Coulomb.
 Polarization charges : Total charges.
 Charge compensation  : None.
 Solution method      : Matrix inversion.
 Cavity type          : VdW (van der Waals Surface) (Alpha=1.000).
 Cavity algorithm     : GePol (No added spheres)
                        Default sphere list used, NSphG=   52.
                        Lebedev-Laikov grids with approx.  5.0 points / Ang**2.
                        Smoothing algorithm: York/Karplus (Gamma=1.0000).
                        Polarization charges: spherical gaussians, with
                                              point-specific exponents (IZeta= 3).
                        Self-potential: point-specific (ISelfS= 7).
                        Self-field    : sphere-specific E.n sum rule (ISelfD= 2).
 1st derivatives      : Analytical E(r).r(x)/FMM algorithm (CHGder, D1EAlg=3).
                        Cavity 1st derivative terms included.
 2nd derivatives      : Analytical E(r).r(xy)/FMM algorithm (CHGder, D2EAlg=3).
                        Cavity 2nd derivative terms included.
 Solvent              : Dichloromethane, Eps=   8.930000 Eps(inf)=   2.028346
 ------------------------------------------------------------------------------
 GePol: Number of generator spheres                  =      52
 GePol: Total number of spheres                      =      52
 GePol: Number of exposed spheres                    =      52 (100.00%)
 GePol: Number of points                             =    3584
 GePol: Average weight of points                     =       0.11
 GePol: Minimum weight of points                     =   0.19D-10
 GePol: Maximum weight of points                     =    0.20498
 GePol: Number of points with low weight             =     216
 GePol: Fraction of low-weight points (<1% of avg)   =       6.03%
 GePol: Cavity surface area                          =    412.054 Ang**2
 GePol: Cavity volume                                =    428.282 Ang**3
 ------------------------------------------------------------------------------
 Atomic radii for non-electrostatic terms: SMD-CDS.
 ------------------------------------------------------------------------------
 PCM non-electrostatic energy =        -0.0108552937 Hartrees.
 Nuclear repulsion after PCM non-electrostatic terms =     2851.9227534829 Hartrees.
 Leave Link  301 at Tue Sep 26 15:16:29 2023, MaxMem=  2147483648 cpu:              22.7 elap:               1.5
 (Enter /gpfs1/apps/software/Gaussian16/AVX2/g16/l302.exe)
 NPDir=0 NMtPBC=     1 NCelOv=     1 NCel=       1 NClECP=     1 NCelD=      1
         NCelK=      1 NCelE2=     1 NClLst=     1 CellRange=     0.0.
 One-electron integrals computed using PRISM.
 One-electron integral symmetry used in STVInt
 NBasis=   521 RedAO= T EigKep=  2.76D-04  NBF=   521
 NBsUse=   521 1.00D-06 EigRej= -1.00D+00 NBFU=   521
 Precomputing XC quadrature grid using
 IXCGrd= 4 IRadAn=           5 IRanWt=          -1 IRanGd=           0 AccXCQ= 0.00D+00.
 Generated NRdTot=       0 NPtTot=           0 NUsed=           0 NTot=          32
 NSgBfM=   541   540   540   541   541 MxSgAt=    52 MxSgA2=    52.
 Leave Link  302 at Tue Sep 26 15:16:30 2023, MaxMem=  2147483648 cpu:              12.1 elap:               0.8
 (Enter /gpfs1/apps/software/Gaussian16/AVX2/g16/l303.exe)
 DipDrv:  MaxL=1.
 Leave Link  303 at Tue Sep 26 15:16:31 2023, MaxMem=  2147483648 cpu:               1.7 elap:               0.1
 (Enter /gpfs1/apps/software/Gaussian16/AVX2/g16/l401.exe)
 ExpMin= 1.22D-01 ExpMax= 2.27D+03 ExpMxC= 3.41D+02 IAcc=3 IRadAn=         5 AccDes= 0.00D+00
 Harris functional with IExCor= 1009 and IRadAn=       5 diagonalized for initial guess.
 HarFok:  IExCor= 1009 AccDes= 0.00D+00 IRadAn=         5 IDoV= 1 UseB2=F ITyADJ=14
 ICtDFT=  3500011 ScaDFX=  1.000000  1.000000  1.000000  1.000000
 FoFCou: FMM=F IPFlag=           0 FMFlag=      100000 FMFlg1=           0
         NFxFlg=           0 DoJE=T BraDBF=F KetDBF=T FulRan=T
         wScrn=  0.000000 ICntrl=       500 IOpCl=  0 I1Cent=   200000004 NGrid=           0
         NMat0=    1 NMatS0=      1 NMatT0=    0 NMatD0=    1 NMtDS0=    0 NMtDT0=    0
 Petite list used in FoFCou.
 Harris En= -1315.09757364793    
 JPrj=0 DoOrth=F DoCkMO=F.
 Leave Link  401 at Tue Sep 26 15:16:33 2023, MaxMem=  2147483648 cpu:              38.1 elap:               2.4
 (Enter /gpfs1/apps/software/Gaussian16/AVX2/g16/l502.exe)
 Integral symmetry usage will be decided dynamically.
 Closed shell SCF:
 Using DIIS extrapolation, IDIIS=  1040.
 NGot=  2147483648 LenX=  2146862810 LenY=  2146559760
 Requested convergence on RMS density matrix=1.00D-08 within 128 cycles.
 Requested convergence on MAX density matrix=1.00D-06.
 Requested convergence on             energy=1.00D-06.
 No special actions if energy rises.
 Fock matrices will be formed incrementally for  20 cycles.

 Cycle   1  Pass 1  IDiag  1:
 FoFJK:  IHMeth= 1 ICntrl=       0 DoSepK=F KAlg= 0 I1Cent=           0 FoldK=F
 IRaf= 780000000 NMat=       1 IRICut=       1 DoRegI=T DoRafI=F ISym2E= 0 IDoP0=0 IntGTp=1.
 FoFCou: FMM=F IPFlag=           0 FMFlag=      100000 FMFlg1=           0
         NFxFlg=           0 DoJE=F BraDBF=F KetDBF=F FulRan=T
         wScrn=  0.000000 ICntrl=         0 IOpCl=  0 I1Cent=           0 NGrid=           0
         NMat0=    1 NMatS0=      1 NMatT0=    0 NMatD0=    1 NMtDS0=    0 NMtDT0=    0
 Symmetry not used in FoFCou.
 Inv3:  Mode=1 IEnd=    38535168.
 Iteration    1 A*A^-1 deviation from unit magnitude is 3.55D-15 for   2760.
 Iteration    1 A*A^-1 deviation from orthogonality  is 2.55D-15 for   3506    953.
 Iteration    1 A^-1*A deviation from unit magnitude is 3.44D-15 for   2888.
 Iteration    1 A^-1*A deviation from orthogonality  is 2.45D-14 for   1208   1062.
 E= -1315.17814736127    
 DIIS: error= 2.34D-02 at cycle   1 NSaved=   1.
 NSaved= 1 IEnMin= 1 EnMin= -1315.17814736127     IErMin= 1 ErrMin= 2.34D-02
 ErrMax= 2.34D-02  0.00D+00 EMaxC= 1.00D-01 BMatC= 6.65D-01 BMatP= 6.65D-01
 IDIUse=3 WtCom= 7.66D-01 WtEn= 2.34D-01
 Coeff-Com:  0.100D+01
 Coeff-En:   0.100D+01
 Coeff:      0.100D+01
 Gap=     0.337 Goal=   None    Shift=    0.000
 GapD=    0.337 DampG=1.000 DampE=0.500 DampFc=0.5000 IDamp=-1.
 Damping current iteration by 5.00D-01
 RMSDP=4.33D-03 MaxDP=5.21D-01              OVMax= 2.03D-01

 Cycle   2  Pass 1  IDiag  1:
 RMSU=  2.16D-03    CP:  9.87D-01
 E= -1315.44907917304     Delta-E=       -0.270931811779 Rises=F Damp=T
 DIIS: error= 5.90D-03 at cycle   2 NSaved=   2.
 NSaved= 2 IEnMin= 2 EnMin= -1315.44907917304     IErMin= 2 ErrMin= 5.90D-03
 ErrMax= 5.90D-03  0.00D+00 EMaxC= 1.00D-01 BMatC= 6.75D-02 BMatP= 6.65D-01
 IDIUse=3 WtCom= 9.41D-01 WtEn= 5.90D-02
 Coeff-Com:  0.402D-01 0.960D+00
 Coeff-En:   0.360D-01 0.964D+00
 Coeff:      0.400D-01 0.960D+00
 Gap=     0.301 Goal=   None    Shift=    0.000
 RMSDP=1.21D-03 MaxDP=1.34D-01 DE=-2.71D-01 OVMax= 1.41D-01

 Cycle   3  Pass 1  IDiag  1:
 RMSU=  1.16D-03    CP:  9.71D-01  9.08D-01
 E= -1315.74932171264     Delta-E=       -0.300242539600 Rises=F Damp=F
 DIIS: error= 6.81D-03 at cycle   3 NSaved=   3.
 NSaved= 3 IEnMin= 3 EnMin= -1315.74932171264     IErMin= 2 ErrMin= 5.90D-03
 ErrMax= 6.81D-03  0.00D+00 EMaxC= 1.00D-01 BMatC= 4.14D-02 BMatP= 6.75D-02
 IDIUse=3 WtCom= 9.32D-01 WtEn= 6.81D-02
 Coeff-Com: -0.721D-01 0.450D+00 0.622D+00
 Coeff-En:   0.000D+00 0.000D+00 0.100D+01
 Coeff:     -0.672D-01 0.420D+00 0.648D+00
 Gap=     0.266 Goal=   None    Shift=    0.000
 RMSDP=6.06D-04 MaxDP=6.66D-02 DE=-3.00D-01 OVMax= 4.25D-02

 Cycle   4  Pass 1  IDiag  1:
 RMSU=  3.40D-04    CP:  9.76D-01  1.05D+00  6.74D-01
 E= -1315.78130604898     Delta-E=       -0.031984336334 Rises=F Damp=F
 DIIS: error= 2.43D-03 at cycle   4 NSaved=   4.
 NSaved= 4 IEnMin= 4 EnMin= -1315.78130604898     IErMin= 4 ErrMin= 2.43D-03
 ErrMax= 2.43D-03  0.00D+00 EMaxC= 1.00D-01 BMatC= 3.71D-03 BMatP= 4.14D-02
 IDIUse=3 WtCom= 9.76D-01 WtEn= 2.43D-02
 Coeff-Com: -0.220D-01 0.669D-01 0.270D+00 0.685D+00
 Coeff-En:   0.000D+00 0.000D+00 0.000D+00 0.100D+01
 Coeff:     -0.214D-01 0.652D-01 0.263D+00 0.693D+00
 Gap=     0.263 Goal=   None    Shift=    0.000
 RMSDP=1.62D-04 MaxDP=1.39D-02 DE=-3.20D-02 OVMax= 1.07D-02

 Cycle   5  Pass 1  IDiag  1:
 RMSU=  8.66D-05    CP:  9.75D-01  1.03D+00  7.50D-01  7.55D-01
 E= -1315.78439416141     Delta-E=       -0.003088112435 Rises=F Damp=F
 DIIS: error= 5.37D-04 at cycle   5 NSaved=   5.
 NSaved= 5 IEnMin= 5 EnMin= -1315.78439416141     IErMin= 5 ErrMin= 5.37D-04
 ErrMax= 5.37D-04  0.00D+00 EMaxC= 1.00D-01 BMatC= 1.96D-04 BMatP= 3.71D-03
 IDIUse=3 WtCom= 9.95D-01 WtEn= 5.37D-03
 Coeff-Com: -0.603D-02 0.790D-02 0.837D-01 0.296D+00 0.618D+00
 Coeff-En:   0.000D+00 0.000D+00 0.000D+00 0.000D+00 0.100D+01
 Coeff:     -0.600D-02 0.786D-02 0.833D-01 0.295D+00 0.620D+00
 Gap=     0.263 Goal=   None    Shift=    0.000
 RMSDP=3.71D-05 MaxDP=3.42D-03 DE=-3.09D-03 OVMax= 3.23D-03

 Cycle   6  Pass 1  IDiag  1:
 RMSU=  2.90D-05    CP:  9.75D-01  1.03D+00  7.54D-01  7.91D-01  7.84D-01
 E= -1315.78453908803     Delta-E=       -0.000144926614 Rises=F Damp=F
 DIIS: error= 2.19D-04 at cycle   6 NSaved=   6.
 NSaved= 6 IEnMin= 6 EnMin= -1315.78453908803     IErMin= 6 ErrMin= 2.19D-04
 ErrMax= 2.19D-04  0.00D+00 EMaxC= 1.00D-01 BMatC= 2.70D-05 BMatP= 1.96D-04
 IDIUse=3 WtCom= 9.98D-01 WtEn= 2.19D-03
 Coeff-Com: -0.891D-03-0.238D-02 0.157D-01 0.777D-01 0.308D+00 0.602D+00
 Coeff-En:   0.000D+00 0.000D+00 0.000D+00 0.000D+00 0.000D+00 0.100D+01
 Coeff:     -0.889D-03-0.237D-02 0.156D-01 0.775D-01 0.307D+00 0.603D+00
 Gap=     0.263 Goal=   None    Shift=    0.000
 RMSDP=1.41D-05 MaxDP=1.49D-03 DE=-1.45D-04 OVMax= 8.06D-04

 Cycle   7  Pass 1  IDiag  1:
 RMSU=  1.21D-05    CP:  9.75D-01  1.03D+00  7.54D-01  7.98D-01  8.44D-01
                    CP:  8.68D-01
 E= -1315.78456048536     Delta-E=       -0.000021397335 Rises=F Damp=F
 DIIS: error= 6.12D-05 at cycle   7 NSaved=   7.
 NSaved= 7 IEnMin= 7 EnMin= -1315.78456048536     IErMin= 7 ErrMin= 6.12D-05
 ErrMax= 6.12D-05  0.00D+00 EMaxC= 1.00D-01 BMatC= 1.94D-06 BMatP= 2.70D-05
 IDIUse=1 WtCom= 1.00D+00 WtEn= 0.00D+00
 Coeff-Com:  0.548D-03-0.198D-02-0.526D-02-0.119D-01 0.285D-01 0.218D+00
 Coeff-Com:  0.772D+00
 Coeff:      0.548D-03-0.198D-02-0.526D-02-0.119D-01 0.285D-01 0.218D+00
 Coeff:      0.772D+00
 Gap=     0.263 Goal=   None    Shift=    0.000
 RMSDP=5.40D-06 MaxDP=3.14D-04 DE=-2.14D-05 OVMax= 6.24D-04

 Cycle   8  Pass 1  IDiag  1:
 RMSU=  3.71D-06    CP:  9.75D-01  1.03D+00  7.55D-01  8.01D-01  8.74D-01
                    CP:  9.51D-01  9.26D-01
 E= -1315.78456260375     Delta-E=       -0.000002118387 Rises=F Damp=F
 DIIS: error= 1.33D-05 at cycle   8 NSaved=   8.
 NSaved= 8 IEnMin= 8 EnMin= -1315.78456260375     IErMin= 8 ErrMin= 1.33D-05
 ErrMax= 1.33D-05  0.00D+00 EMaxC= 1.00D-01 BMatC= 2.80D-07 BMatP= 1.94D-06
 IDIUse=1 WtCom= 1.00D+00 WtEn= 0.00D+00
 Coeff-Com:  0.390D-03-0.590D-03-0.418D-02-0.159D-01-0.306D-01 0.392D-02
 Coeff-Com:  0.306D+00 0.741D+00
 Coeff:      0.390D-03-0.590D-03-0.418D-02-0.159D-01-0.306D-01 0.392D-02
 Coeff:      0.306D+00 0.741D+00
 Gap=     0.263 Goal=   None    Shift=    0.000
 RMSDP=1.95D-06 MaxDP=9.85D-05 DE=-2.12D-06 OVMax= 2.24D-04

 Cycle   9  Pass 1  IDiag  1:
 RMSU=  1.39D-06    CP:  9.75D-01  1.03D+00  7.55D-01  8.01D-01  8.80D-01
                    CP:  9.76D-01  1.00D+00  9.68D-01
 E= -1315.78456293131     Delta-E=       -0.000000327565 Rises=F Damp=F
 DIIS: error= 7.93D-06 at cycle   9 NSaved=   9.
 NSaved= 9 IEnMin= 9 EnMin= -1315.78456293131     IErMin= 9 ErrMin= 7.93D-06
 ErrMax= 7.93D-06  0.00D+00 EMaxC= 1.00D-01 BMatC= 5.05D-08 BMatP= 2.80D-07
 IDIUse=1 WtCom= 1.00D+00 WtEn= 0.00D+00
 Coeff-Com:  0.158D-03-0.143D-03-0.155D-02-0.681D-02-0.176D-01-0.181D-01
 Coeff-Com:  0.789D-01 0.374D+00 0.591D+00
 Coeff:      0.158D-03-0.143D-03-0.155D-02-0.681D-02-0.176D-01-0.181D-01
 Coeff:      0.789D-01 0.374D+00 0.591D+00
 Gap=     0.263 Goal=   None    Shift=    0.000
 RMSDP=7.92D-07 MaxDP=5.59D-05 DE=-3.28D-07 OVMax= 6.43D-05

 Cycle  10  Pass 1  IDiag  1:
 RMSU=  6.30D-07    CP:  9.75D-01  1.03D+00  7.55D-01  8.01D-01  8.82D-01
                    CP:  9.84D-01  1.01D+00  1.04D+00  9.17D-01
 E= -1315.78456298391     Delta-E=       -0.000000052595 Rises=F Damp=F
 DIIS: error= 2.08D-06 at cycle  10 NSaved=  10.
 NSaved=10 IEnMin=10 EnMin= -1315.78456298391     IErMin=10 ErrMin= 2.08D-06
 ErrMax= 2.08D-06  0.00D+00 EMaxC= 1.00D-01 BMatC= 2.83D-09 BMatP= 5.05D-08
 IDIUse=1 WtCom= 1.00D+00 WtEn= 0.00D+00
 Coeff-Com: -0.182D-04 0.549D-04 0.301D-03 0.756D-03 0.478D-03-0.542D-02
 Coeff-Com: -0.303D-01-0.169D-01 0.145D+00 0.906D+00
 Coeff:     -0.182D-04 0.549D-04 0.301D-03 0.756D-03 0.478D-03-0.542D-02
 Coeff:     -0.303D-01-0.169D-01 0.145D+00 0.906D+00
 Gap=     0.263 Goal=   None    Shift=    0.000
 RMSDP=3.63D-07 MaxDP=1.71D-05 DE=-5.26D-08 OVMax= 5.64D-05

 Cycle  11  Pass 1  IDiag  1:
 RMSU=  2.04D-07    CP:  9.75D-01  1.03D+00  7.56D-01  8.01D-01  8.82D-01
                    CP:  9.85D-01  1.02D+00  1.09D+00  1.06D+00  1.11D+00
 E= -1315.78456299037     Delta-E=       -0.000000006461 Rises=F Damp=F
 DIIS: error= 8.45D-07 at cycle  11 NSaved=  11.
 NSaved=11 IEnMin=11 EnMin= -1315.78456299037     IErMin=11 ErrMin= 8.45D-07
 ErrMax= 8.45D-07  0.00D+00 EMaxC= 1.00D-01 BMatC= 1.19D-09 BMatP= 2.83D-09
 IDIUse=1 WtCom= 1.00D+00 WtEn= 0.00D+00
 Coeff-Com: -0.274D-04 0.436D-04 0.334D-03 0.118D-02 0.231D-02-0.852D-03
 Coeff-Com: -0.265D-01-0.535D-01-0.691D-02 0.474D+00 0.610D+00
 Coeff:     -0.274D-04 0.436D-04 0.334D-03 0.118D-02 0.231D-02-0.852D-03
 Coeff:     -0.265D-01-0.535D-01-0.691D-02 0.474D+00 0.610D+00
 Gap=     0.263 Goal=   None    Shift=    0.000
 RMSDP=1.37D-07 MaxDP=5.49D-06 DE=-6.46D-09 OVMax= 1.37D-05

 Cycle  12  Pass 1  IDiag  1:
 RMSU=  8.22D-08    CP:  9.75D-01  1.03D+00  7.56D-01  8.01D-01  8.83D-01
                    CP:  9.86D-01  1.02D+00  1.10D+00  1.09D+00  1.24D+00
                    CP:  1.03D+00
 E= -1315.78456299186     Delta-E=       -0.000000001487 Rises=F Damp=F
 DIIS: error= 3.08D-07 at cycle  12 NSaved=  12.
 NSaved=12 IEnMin=12 EnMin= -1315.78456299186     IErMin=12 ErrMin= 3.08D-07
 ErrMax= 3.08D-07  0.00D+00 EMaxC= 1.00D-01 BMatC= 7.86D-11 BMatP= 1.19D-09
 IDIUse=1 WtCom= 1.00D+00 WtEn= 0.00D+00
 Coeff-Com: -0.526D-05 0.420D-05 0.448D-04 0.217D-03 0.634D-03 0.850D-03
 Coeff-Com: -0.249D-02-0.111D-01-0.323D-01-0.827D-02 0.178D+00 0.874D+00
 Coeff:     -0.526D-05 0.420D-05 0.448D-04 0.217D-03 0.634D-03 0.850D-03
 Coeff:     -0.249D-02-0.111D-01-0.323D-01-0.827D-02 0.178D+00 0.874D+00
 Gap=     0.263 Goal=   None    Shift=    0.000
 RMSDP=6.60D-08 MaxDP=5.32D-06 DE=-1.49D-09 OVMax= 9.61D-06

 Cycle  13  Pass 1  IDiag  1:
 RMSU=  2.63D-08    CP:  9.75D-01  1.03D+00  7.56D-01  8.01D-01  8.83D-01
                    CP:  9.86D-01  1.02D+00  1.10D+00  1.10D+00  1.30D+00
                    CP:  1.20D+00  1.09D+00
 E= -1315.78456299202     Delta-E=       -0.000000000166 Rises=F Damp=F
 DIIS: error= 1.08D-07 at cycle  13 NSaved=  13.
 NSaved=13 IEnMin=13 EnMin= -1315.78456299202     IErMin=13 ErrMin= 1.08D-07
 ErrMax= 1.08D-07  0.00D+00 EMaxC= 1.00D-01 BMatC= 1.45D-11 BMatP= 7.86D-11
 IDIUse=1 WtCom= 1.00D+00 WtEn= 0.00D+00
 Coeff-Com:  0.920D-06-0.281D-05-0.238D-04-0.598D-04-0.458D-04 0.347D-03
 Coeff-Com:  0.183D-02 0.245D-02-0.111D-01-0.584D-01-0.187D-01 0.300D+00
 Coeff-Com:  0.783D+00
 Coeff:      0.920D-06-0.281D-05-0.238D-04-0.598D-04-0.458D-04 0.347D-03
 Coeff:      0.183D-02 0.245D-02-0.111D-01-0.584D-01-0.187D-01 0.300D+00
 Coeff:      0.783D+00
 Gap=     0.263 Goal=   None    Shift=    0.000
 RMSDP=2.38D-08 MaxDP=9.21D-07 DE=-1.66D-10 OVMax= 3.39D-06

 Cycle  14  Pass 1  IDiag  1:
 RMSU=  1.12D-08    CP:  9.75D-01  1.03D+00  7.56D-01  8.01D-01  8.83D-01
                    CP:  9.86D-01  1.02D+00  1.11D+00  1.11D+00  1.31D+00
                    CP:  1.25D+00  1.23D+00  1.08D+00
 E= -1315.78456299207     Delta-E=       -0.000000000052 Rises=F Damp=F
 DIIS: error= 5.76D-08 at cycle  14 NSaved=  14.
 NSaved=14 IEnMin=14 EnMin= -1315.78456299207     IErMin=14 ErrMin= 5.76D-08
 ErrMax= 5.76D-08  0.00D+00 EMaxC= 1.00D-01 BMatC= 2.75D-12 BMatP= 1.45D-11
 IDIUse=1 WtCom= 1.00D+00 WtEn= 0.00D+00
 Coeff-Com:  0.126D-05-0.166D-05-0.191D-04-0.669D-04-0.136D-03 0.508D-05
 Coeff-Com:  0.131D-02 0.359D-02 0.203D-02-0.221D-01-0.441D-01-0.461D-01
 Coeff-Com:  0.318D+00 0.788D+00
 Coeff:      0.126D-05-0.166D-05-0.191D-04-0.669D-04-0.136D-03 0.508D-05
 Coeff:      0.131D-02 0.359D-02 0.203D-02-0.221D-01-0.441D-01-0.461D-01
 Coeff:      0.318D+00 0.788D+00
 Gap=     0.263 Goal=   None    Shift=    0.000
 RMSDP=9.60D-09 MaxDP=6.38D-07 DE=-5.23D-11 OVMax= 1.34D-06

 Error on total polarization charges =  0.04724
 SCF Done:  E(RM062X) =  -1315.78456299     A.U. after   14 cycles
            NFock= 14  Conv=0.96D-08     -V/T= 2.0099
 KE= 1.302914428575D+03 PE=-8.762835715106D+03 EE= 3.292213970056D+03
 SMD-CDS (non-electrostatic) energy       (kcal/mol) =      -6.81
 (included in total energy above)
 Leave Link  502 at Tue Sep 26 15:19:53 2023, MaxMem=  2147483648 cpu:            3174.4 elap:             199.9
 (Enter /gpfs1/apps/software/Gaussian16/AVX2/g16/l801.exe)
 DoSCS=F DFT=T ScalE2(SS,OS)=  1.000000  1.000000
 Range of M.O.s used for correlation:     1   521
 NBasis=   521 NAE=   104 NBE=   104 NFC=     0 NFV=     0
 NROrb=    521 NOA=   104 NOB=   104 NVA=   417 NVB=   417

 **** Warning!!: The largest alpha MO coefficient is  0.12158732D+02

 Leave Link  801 at Tue Sep 26 15:19:53 2023, MaxMem=  2147483648 cpu:               0.6 elap:               0.0
 (Enter /gpfs1/apps/software/Gaussian16/AVX2/g16/l1101.exe)
 Using compressed storage, NAtomX=    52.
 Will process     53 centers per pass.
 Leave Link 1101 at Tue Sep 26 15:19:55 2023, MaxMem=  2147483648 cpu:              21.6 elap:               1.4
 (Enter /gpfs1/apps/software/Gaussian16/AVX2/g16/l1102.exe)
 Symmetrizing basis deriv contribution to polar:
 IMax=3 JMax=2 DiffMx= 0.00D+00
 Leave Link 1102 at Tue Sep 26 15:19:55 2023, MaxMem=  2147483648 cpu:               1.4 elap:               0.1
 (Enter /gpfs1/apps/software/Gaussian16/AVX2/g16/l1110.exe)
 Forming Gx(P) for the SCF density, NAtomX=    52.
 Integral derivatives from FoFJK, PRISM(SPDF).
 Do as many integral derivatives as possible in FoFJK.
 G2DrvN: MDV=    2147478156.
 G2DrvN: will do    53 centers at a time, making    1 passes.
 Calling FoFCou, ICntrl=  3107 FMM=F I1Cent=   0 AccDes= 0.00D+00.
 FoFJK:  IHMeth= 1 ICntrl=    3107 DoSepK=F KAlg= 0 I1Cent=           0 FoldK=F
 IRaf=         0 NMat=       1 IRICut=       1 DoRegI=T DoRafI=F ISym2E= 0 IDoP0=0 IntGTp=1.
 FoFCou: FMM=F IPFlag=           0 FMFlag=      100000 FMFlg1=           0
         NFxFlg=           0 DoJE=F BraDBF=F KetDBF=F FulRan=T
         wScrn=  0.000000 ICntrl=      3107 IOpCl=  0 I1Cent=           0 NGrid=           0
         NMat0=    1 NMatS0=      1 NMatT0=    0 NMatD0=    1 NMtDS0=    0 NMtDT0=    0
 Symmetry not used in FoFCou.
 NEqPCM:  Using equilibrium solvation (IEInf=0, Eps=   8.9300, EpsInf=   2.0283)
 G2PCM: DoFxE=T DoFxN=T DoGrad=T DoDP/DQ/DG/TGxP=FFFF NFrqRd=   0 IEInf=0 SqF1=F DoCFld=F IF1Alg=4.
 GePol: Maximum number of non-zero 1st derivatives   =     236
 End of G2Drv F.D. properties file   721 does not exist.
 End of G2Drv F.D. properties file   722 does not exist.
 End of G2Drv F.D. properties file   788 does not exist.
 Leave Link 1110 at Tue Sep 26 15:27:57 2023, MaxMem=  2147483648 cpu:            7709.2 elap:             481.9
 (Enter /gpfs1/apps/software/Gaussian16/AVX2/g16/l1002.exe)
 Minotr:  Closed shell wavefunction.
          IDoAtm=11111111111111111111111111111111111111111111111111
          IDoAtm=11
 NEqPCM:  Using equilibrium solvation (IEInf=0, Eps=   8.9300, EpsInf=   2.0283)
          Direct CPHF calculation.
          Differentiating once with respect to nuclear coordinates.
          Requested convergence is 1.0D-08 RMS, and 1.0D-07 maximum.
          Secondary convergence is 1.0D-12 RMS, and 1.0D-12 maximum.
          NewPWx=T KeepS1=F KeepF1=F KeepIn=T MapXYZ=F SortEE=F KeepMc=T.
        15840 words used for storage of precomputed grid.
 Two-electron integrals replicated using symmetry.
          MDV=    2147483648 using IRadAn=       1.
          Solving linear equations simultaneously, MaxMat=     384.
 FoF2E skips out because all densities are zero.
 CalDSu exits because no D1Ps are significant.
 FoFJK:  IHMeth= 1 ICntrl=       0 DoSepK=F KAlg= 0 I1Cent=           0 FoldK=F
 IRaf= 740000000 NMat=     156 IRICut=     390 DoRegI=T DoRafI=T ISym2E= 2 IDoP0=3 IntGTp=3.
          There are   159 degrees of freedom in the 1st order CPHF.  IDoFFX=6 NUNeed=     0.
    153 vectors produced by pass  0 Test12= 4.34D-14 1.00D-09 XBig12= 1.44D-01 1.25D-01.
 AX will form   153 AO Fock derivatives at one time.
    153 vectors produced by pass  1 Test12= 4.34D-14 1.00D-09 XBig12= 1.88D-02 2.91D-02.
    153 vectors produced by pass  2 Test12= 4.34D-14 1.00D-09 XBig12= 4.12D-04 2.90D-03.
    153 vectors produced by pass  3 Test12= 4.34D-14 1.00D-09 XBig12= 4.72D-06 2.40D-04.
    153 vectors produced by pass  4 Test12= 4.34D-14 1.00D-09 XBig12= 4.26D-08 1.65D-05.
    153 vectors produced by pass  5 Test12= 4.34D-14 1.00D-09 XBig12= 2.10D-10 1.07D-06.
     95 vectors produced by pass  6 Test12= 4.34D-14 1.00D-09 XBig12= 6.88D-13 4.46D-08.
     12 vectors produced by pass  7 Test12= 4.34D-14 1.00D-09 XBig12= 2.10D-15 3.07D-09.
 InvSVY:  IOpt=1 It=  1 EMax= 7.77D-16
 Solved reduced A of dimension  1025 with   159 vectors.
 End of Minotr F.D. properties file   721 does not exist.
 End of Minotr F.D. properties file   722 does not exist.
 End of Minotr F.D. properties file   788 does not exist.
 Leave Link 1002 at Tue Sep 26 15:47:12 2023, MaxMem=  2147483648 cpu:           18464.6 elap:            1154.3
 (Enter /gpfs1/apps/software/Gaussian16/AVX2/g16/l601.exe)
 Copying SCF densities to generalized density rwf, IOpCl= 0 IROHF=0.

 **********************************************************************

            Population analysis using the SCF Density.

 **********************************************************************

 Orbital symmetries:
       Occupied  (A) (A) (A) (A) (A) (A) (A) (A) (A) (A) (A) (A)
                 (A) (A) (A) (A) (A) (A) (A) (A) (A) (A) (A) (A)
                 (A) (A) (A) (A) (A) (A) (A) (A) (A) (A) (A) (A)
                 (A) (A) (A) (A) (A) (A) (A) (A) (A) (A) (A) (A)
                 (A) (A) (A) (A) (A) (A) (A) (A) (A) (A) (A) (A)
                 (A) (A) (A) (A) (A) (A) (A) (A) (A) (A) (A) (A)
                 (A) (A) (A) (A) (A) (A) (A) (A) (A) (A) (A) (A)
                 (A) (A) (A) (A) (A) (A) (A) (A) (A) (A) (A) (A)
                 (A) (A) (A) (A) (A) (A) (A) (A)
       Virtual   (A) (A) (A) (A) (A) (A) (A) (A) (A) (A) (A) (A)
                 (A) (A) (A) (A) (A) (A) (A) (A) (A) (A) (A) (A)
                 (A) (A) (A) (A) (A) (A) (A) (A) (A) (A) (A) (A)
                 (A) (A) (A) (A) (A) (A) (A) (A) (A) (A) (A) (A)
                 (A) (A) (A) (A) (A) (A) (A) (A) (A) (A) (A) (A)
                 (A) (A) (A) (A) (A) (A) (A) (A) (A) (A) (A) (A)
                 (A) (A) (A) (A) (A) (A) (A) (A) (A) (A) (A) (A)
                 (A) (A) (A) (A) (A) (A) (A) (A) (A) (A) (A) (A)
                 (A) (A) (A) (A) (A) (A) (A) (A) (A) (A) (A) (A)
                 (A) (A) (A) (A) (A) (A) (A) (A) (A) (A) (A) (A)
                 (A) (A) (A) (A) (A) (A) (A) (A) (A) (A) (A) (A)
                 (A) (A) (A) (A) (A) (A) (A) (A) (A) (A) (A) (A)
                 (A) (A) (A) (A) (A) (A) (A) (A) (A) (A) (A) (A)
                 (A) (A) (A) (A) (A) (A) (A) (A) (A) (A) (A) (A)
                 (A) (A) (A) (A) (A) (A) (A) (A) (A) (A) (A) (A)
                 (A) (A) (A) (A) (A) (A) (A) (A) (A) (A) (A) (A)
                 (A) (A) (A) (A) (A) (A) (A) (A) (A) (A) (A) (A)
                 (A) (A) (A) (A) (A) (A) (A) (A) (A) (A) (A) (A)
                 (A) (A) (A) (A) (A) (A) (A) (A) (A) (A) (A) (A)
                 (A) (A) (A) (A) (A) (A) (A) (A) (A) (A) (A) (A)
                 (A) (A) (A) (A) (A) (A) (A) (A) (A) (A) (A) (A)
                 (A) (A) (A) (A) (A) (A) (A) (A) (A) (A) (A) (A)
                 (A) (A) (A) (A) (A) (A) (A) (A) (A) (A) (A) (A)
                 (A) (A) (A) (A) (A) (A) (A) (A) (A) (A) (A) (A)
                 (A) (A) (A) (A) (A) (A) (A) (A) (A) (A) (A) (A)
                 (A) (A) (A) (A) (A) (A) (A) (A) (A) (A) (A) (A)
                 (A) (A) (A) (A) (A) (A) (A) (A) (A) (A) (A) (A)
                 (A) (A) (A) (A) (A) (A) (A) (A) (A) (A) (A) (A)
                 (A) (A) (A) (A) (A) (A) (A) (A) (A) (A) (A) (A)
                 (A) (A) (A) (A) (A) (A) (A) (A) (A) (A) (A) (A)
                 (A) (A) (A) (A) (A) (A) (A) (A) (A) (A) (A) (A)
                 (A) (A) (A) (A) (A) (A) (A) (A) (A) (A) (A) (A)
                 (A) (A) (A) (A) (A) (A) (A) (A) (A) (A) (A) (A)
                 (A) (A) (A) (A) (A) (A) (A) (A) (A) (A) (A) (A)
                 (A) (A) (A) (A) (A) (A) (A) (A) (A)
 The electronic state is 1-A.
 Alpha  occ. eigenvalues --  -19.64599 -19.64575 -19.61757 -19.55152 -14.86641
 Alpha  occ. eigenvalues --  -14.82644 -14.79478 -10.70211 -10.65513 -10.61319
 Alpha  occ. eigenvalues --  -10.61021 -10.60975 -10.60382 -10.60271 -10.60131
 Alpha  occ. eigenvalues --  -10.59472 -10.57659 -10.57633 -10.56209 -10.56143
 Alpha  occ. eigenvalues --  -10.56072 -10.55998 -10.55964 -10.55809 -10.55518
 Alpha  occ. eigenvalues --  -10.55443 -10.55263 -10.55116 -10.54932  -1.19933
 Alpha  occ. eigenvalues --   -1.17713  -1.17130  -1.12482  -1.09272  -1.05090
 Alpha  occ. eigenvalues --   -0.97434  -0.96058  -0.92725  -0.89075  -0.88180
 Alpha  occ. eigenvalues --   -0.84263  -0.83704  -0.83372  -0.82567  -0.81631
 Alpha  occ. eigenvalues --   -0.79882  -0.77124  -0.76391  -0.70510  -0.70367
 Alpha  occ. eigenvalues --   -0.68984  -0.68503  -0.68017  -0.66618  -0.64341
 Alpha  occ. eigenvalues --   -0.62779  -0.61256  -0.60347  -0.59746  -0.57661
 Alpha  occ. eigenvalues --   -0.57009  -0.56557  -0.55720  -0.55619  -0.55421
 Alpha  occ. eigenvalues --   -0.54583  -0.53349  -0.53050  -0.52406  -0.51208
 Alpha  occ. eigenvalues --   -0.50849  -0.50480  -0.50168  -0.49543  -0.48790
 Alpha  occ. eigenvalues --   -0.48476  -0.48105  -0.47832  -0.47223  -0.46207
 Alpha  occ. eigenvalues --   -0.46027  -0.45406  -0.45307  -0.44461  -0.43621
 Alpha  occ. eigenvalues --   -0.43392  -0.42544  -0.42303  -0.41986  -0.40930
 Alpha  occ. eigenvalues --   -0.40252  -0.40157  -0.39641  -0.38382  -0.35624
 Alpha  occ. eigenvalues --   -0.35032  -0.34304  -0.33863  -0.31358  -0.30903
 Alpha  occ. eigenvalues --   -0.30793  -0.27886  -0.27484  -0.26186
 Alpha virt. eigenvalues --    0.00087   0.01426   0.01723   0.02423   0.02872
 Alpha virt. eigenvalues --    0.04732   0.08202   0.09826   0.10817   0.11512
 Alpha virt. eigenvalues --    0.11838   0.12031   0.13067   0.13343   0.14219
 Alpha virt. eigenvalues --    0.14944   0.15456   0.15737   0.15903   0.16588
 Alpha virt. eigenvalues --    0.17043   0.17406   0.17693   0.18301   0.18688
 Alpha virt. eigenvalues --    0.19219   0.19599   0.19911   0.20422   0.20934
 Alpha virt. eigenvalues --    0.21298   0.21499   0.21567   0.22039   0.22588
 Alpha virt. eigenvalues --    0.23951   0.25209   0.25910   0.26171   0.27232
 Alpha virt. eigenvalues --    0.27585   0.28231   0.28659   0.29535   0.30545
 Alpha virt. eigenvalues --    0.31005   0.32354   0.32893   0.33013   0.33380
 Alpha virt. eigenvalues --    0.33982   0.35281   0.35729   0.36808   0.37652
 Alpha virt. eigenvalues --    0.38333   0.38970   0.39729   0.40949   0.41220
 Alpha virt. eigenvalues --    0.43734   0.44721   0.44909   0.45398   0.45840
 Alpha virt. eigenvalues --    0.46308   0.46767   0.47002   0.47635   0.48622
 Alpha virt. eigenvalues --    0.49173   0.49474   0.50131   0.50837   0.50996
 Alpha virt. eigenvalues --    0.51416   0.51880   0.52255   0.52795   0.53293
 Alpha virt. eigenvalues --    0.54156   0.54554   0.54927   0.55227   0.55586
 Alpha virt. eigenvalues --    0.56712   0.56956   0.57695   0.58763   0.59213
 Alpha virt. eigenvalues --    0.60355   0.60649   0.61526   0.62709   0.63435
 Alpha virt. eigenvalues --    0.63730   0.64506   0.64837   0.65720   0.65768
 Alpha virt. eigenvalues --    0.66245   0.67170   0.67455   0.67508   0.68104
 Alpha virt. eigenvalues --    0.68699   0.68985   0.69296   0.69797   0.70086
 Alpha virt. eigenvalues --    0.70613   0.70753   0.71108   0.71312   0.71800
 Alpha virt. eigenvalues --    0.72120   0.72418   0.72659   0.73220   0.73509
 Alpha virt. eigenvalues --    0.74279   0.74326   0.75095   0.75168   0.75582
 Alpha virt. eigenvalues --    0.75791   0.76158   0.76797   0.77668   0.78067
 Alpha virt. eigenvalues --    0.78248   0.78640   0.79087   0.79384   0.79774
 Alpha virt. eigenvalues --    0.80106   0.80607   0.80962   0.82074   0.82443
 Alpha virt. eigenvalues --    0.82949   0.83537   0.84442   0.84807   0.85041
 Alpha virt. eigenvalues --    0.86593   0.87307   0.88000   0.88213   0.88897
 Alpha virt. eigenvalues --    0.90973   0.92574   0.93366   0.93853   0.94343
 Alpha virt. eigenvalues --    0.94600   0.96368   0.97351   0.98513   0.99495
 Alpha virt. eigenvalues --    1.00191   1.02130   1.02971   1.04288   1.05134
 Alpha virt. eigenvalues --    1.07017   1.07846   1.09499   1.11117   1.11864
 Alpha virt. eigenvalues --    1.12627   1.13829   1.14743   1.15489   1.17154
 Alpha virt. eigenvalues --    1.17811   1.18752   1.19950   1.20629   1.22645
 Alpha virt. eigenvalues --    1.22898   1.24184   1.25114   1.25504   1.26509
 Alpha virt. eigenvalues --    1.26642   1.27785   1.28839   1.29916   1.30535
 Alpha virt. eigenvalues --    1.31009   1.31456   1.31702   1.32416   1.32948
 Alpha virt. eigenvalues --    1.33665   1.34416   1.34604   1.34748   1.35540
 Alpha virt. eigenvalues --    1.36580   1.37675   1.38064   1.39057   1.40025
 Alpha virt. eigenvalues --    1.41844   1.42859   1.44629   1.46346   1.46909
 Alpha virt. eigenvalues --    1.49020   1.49647   1.50456   1.52483   1.53291
 Alpha virt. eigenvalues --    1.54452   1.56506   1.57346   1.58222   1.59885
 Alpha virt. eigenvalues --    1.61970   1.62928   1.64179   1.64949   1.68152
 Alpha virt. eigenvalues --    1.68917   1.69588   1.71184   1.71631   1.72127
 Alpha virt. eigenvalues --    1.72759   1.73467   1.73878   1.74640   1.75396
 Alpha virt. eigenvalues --    1.75572   1.76300   1.77397   1.77428   1.77918
 Alpha virt. eigenvalues --    1.78591   1.79429   1.79612   1.79805   1.80060
 Alpha virt. eigenvalues --    1.80865   1.81289   1.81354   1.81432   1.81884
 Alpha virt. eigenvalues --    1.82225   1.82614   1.83079   1.83270   1.83762
 Alpha virt. eigenvalues --    1.84222   1.84698   1.85198   1.85571   1.86499
 Alpha virt. eigenvalues --    1.86783   1.87001   1.87308   1.88545   1.88954
 Alpha virt. eigenvalues --    1.89734   1.90738   1.91391   1.92087   1.92391
 Alpha virt. eigenvalues --    1.93891   1.94752   1.95701   1.95950   1.96971
 Alpha virt. eigenvalues --    1.97649   1.97908   1.98154   1.98284   1.98648
 Alpha virt. eigenvalues --    1.99086   1.99532   2.00805   2.01847   2.02266
 Alpha virt. eigenvalues --    2.02957   2.03546   2.04220   2.04936   2.05263
 Alpha virt. eigenvalues --    2.06923   2.07399   2.08298   2.09489   2.10006
 Alpha virt. eigenvalues --    2.10775   2.11859   2.13870   2.14585   2.14998
 Alpha virt. eigenvalues --    2.15682   2.16416   2.17606   2.17943   2.18716
 Alpha virt. eigenvalues --    2.19244   2.19575   2.20616   2.21268   2.22098
 Alpha virt. eigenvalues --    2.23986   2.24927   2.26977   2.27637   2.29313
 Alpha virt. eigenvalues --    2.29804   2.31766   2.32553   2.32733   2.33471
 Alpha virt. eigenvalues --    2.33856   2.34287   2.35015   2.35560   2.36941
 Alpha virt. eigenvalues --    2.37174   2.37876   2.38009   2.38721   2.39743
 Alpha virt. eigenvalues --    2.40566   2.41512   2.43479   2.45820   2.47437
 Alpha virt. eigenvalues --    2.49201   2.49283   2.49883   2.50776   2.51845
 Alpha virt. eigenvalues --    2.52704   2.54517   2.55546   2.56460   2.59479
 Alpha virt. eigenvalues --    2.62333   2.62658   2.62989   2.64065   2.64832
 Alpha virt. eigenvalues --    2.65679   2.66660   2.67277   2.68251   2.71367
 Alpha virt. eigenvalues --    2.72689   2.72908   2.74200   2.75235   2.75380
 Alpha virt. eigenvalues --    2.75533   2.76062   2.76530   2.76793   2.77134
 Alpha virt. eigenvalues --    2.78606   2.79948   2.80455   2.81761   2.83134
 Alpha virt. eigenvalues --    2.83308   2.84837   2.85366   2.87189   2.88648
 Alpha virt. eigenvalues --    2.89475   2.90146   2.90544   2.91555   2.91952
 Alpha virt. eigenvalues --    2.93125   2.93661   2.94525   2.97642   2.98894
 Alpha virt. eigenvalues --    3.00542   3.00624   3.01409   3.04545   3.07375
 Alpha virt. eigenvalues --    3.08154   3.09542   3.09907   3.11110   3.13519
 Alpha virt. eigenvalues --    3.14434   3.14753   3.18229   3.18798   3.18957
 Alpha virt. eigenvalues --    3.21685   3.23800   3.25464   3.25655   3.27745
 Alpha virt. eigenvalues --    3.34374   3.34614   3.38691   3.38965   3.48156
 Alpha virt. eigenvalues --    3.55330   3.60053   3.62802   3.63141   3.66409
 Alpha virt. eigenvalues --    3.70275   3.75053
          Condensed to atoms (all electrons):
 Mulliken charges:
               1
     1  O   -0.268726
     2  C    0.306204
     3  N   -0.265479
     4  C    0.155810
     5  C   -0.064748
     6  C   -0.039748
     7  C   -0.029947
     8  C   -0.042774
     9  C   -0.077493
    10  N   -0.069155
    11  C   -0.115539
    12  C    0.041328
    13  C   -0.044923
    14  O   -0.574627
    15  C    0.094678
    16  N   -0.261135
    17  H    0.191695
    18  C    0.027026
    19  C    0.180983
    20  O   -0.430025
    21  C    0.200885
    22  C   -0.016513
    23  O   -0.210817
    24  C    0.124127
    25  C   -0.009804
    26  C   -0.053429
    27  C   -0.033049
    28  C   -0.031675
    29  C   -0.030508
    30  C   -0.054658
    31  H    0.030835
    32  H    0.044029
    33  H    0.039895
    34  H    0.044369
    35  H    0.037420
    36  H    0.064866
    37  H    0.097039
    38  H    0.063821
    39  H    0.091433
    40  H    0.105832
    41  H    0.080227
    42  H    0.055572
[...]
 12,-0.00000212,-0.00000050,-0.00000141,-0.00000530,-0.00002660,-0.0000
 0046,0.00003445,0.00000306,-0.00002290,-0.00000333,-0.00000544,-0.0000
 0293,-0.00009382,0.00009903,-0.00009973,0.00000973,0.00002075,-0.00000
 737,-0.00007884,-0.00002050,0.00008719,-0.00001074,0.00002172,-0.00001
 783,0.00000108,-0.00000563,-0.00000159,-0.00000805,-0.00000116,0.00000
 265,0.00000841,-0.00000515,0.00000390,-0.00000368,0.00001620,-0.000010
 06,0.00001124,-0.00002388,0.00000514,-0.00002391,-0.00002348,-0.000005
 35,0.00005663,-0.00001058,-0.00005201,-0.00028064,0.00017550,0.0002614
 6,0.00207154,0.00401186,0.00450813,-0.00826762,0.00597887,0.00692149,0
 .06947977,-0.03459162,-0.06717994,0.01391041,-0.01007648,0.00081145,0.
 00468465,0.00382607,0.00292449,-0.00020877,0.00040061,-0.00088967,0.00
 000004,0.00000097,0.00000050,-0.00000016,0.00000041,0.00000006,0.00000
 002,0.00000028,0.00000015,-0.00000050,0.00000047,0.00000002,0.00000092
 ,0.00000068,0.00000064,0.00000220,0.00000165,0.00000164,-0.00000082,-0
 .00000226,0.00000028,0.00000255,0.00000019,0.00000146,0.00000066,0.000
 00029,0.00000101,0.00000104,0.00000182,-0.00000027,-0.00000020,0.00000
 160,-0.00000001,-0.00000117,-0.00000005,-0.00000063,-0.00000597,-0.000
 00136,-0.00000147,-0.00000038,-0.00000132,-0.00000339,0.00001006,-0.00
 000142,-0.00000139,0.00000655,-0.00001061,0.00000237,-0.00001765,0.000
 03014,-0.00000312,-0.00186236,-0.00177763,-0.00262368,-0.07728524,0.03
 427354,0.05848378,-0.00001039,0.00000489,-0.00002418,0.00000483,-0.000
 05385,0.00004368,0.00000321,-0.00000905,-0.00001024,0.00004254,-0.0000
 0157,-0.00000542,-0.00000627,-0.00000086,0.00000561,0.00000187,-0.0000
 0014,-0.00000114,-0.00000506,-0.00000101,0.00000049,0.00000214,-0.0000
 0022,-0.00000097,-0.00000979,-0.00000040,-0.00000334,0.00003233,0.0000
 6229,0.00002785,-0.00005547,-0.00001750,-0.00000642,0.00000059,0.00000
 482,-0.00001280,0.00002308,-0.00003102,0.00004998,0.00001986,-0.000027
 43,-0.00002600,-0.00011776,0.00010308,0.00009475,0.00000236,0.00000744
 ,-0.00001484,-0.00000688,-0.00000168,0.00000246,0.00000166,0.00000241,
 -0.00000081,0.00000316,-0.00000159,0.00000306,-0.00000413,0.00000337,-
 0.00000621,0.00000493,-0.00000648,0.00000816,-0.00001066,-0.00000311,-
 0.00000078,0.00006190,-0.00005828,-0.00004940,-0.00004640,-0.00018469,
 -0.00045995,-0.00103557,-0.00017171,0.00019460,-0.00106304,-0.00036691
 ,0.00502070,0.00691245,-0.02073987,0.00723253,-0.05824588,0.03521938,-
 0.00445354,0.00210796,0.02367712,-0.00872837,-0.00216019,0.00307849,0.
 00412762,0.00000285,0.00000064,-0.00000297,-0.00000083,0.00000049,0.00
 000075,-0.00000075,0.00000053,-0.00000007,-0.00000094,0.00000058,-0.00
 000044,0.00000227,-0.00000005,0.00000110,-0.00000920,0.00000006,0.0000
 0001,0.00000095,0.00000290,0.00000300,0.00000020,-0.00000065,0.0000008
 2,0.00000176,0.00000052,0.00000044,-0.00000081,-0.00000044,0.00000042,
 -0.00000016,0.00000021,-0.00000062,-0.00000063,-0.00000026,-0.00000047
 ,-0.00000253,-0.00000085,-0.00000134,-0.00000083,-0.00000202,-0.000002
 62,0.00000611,-0.00000110,-0.00000039,0.00000441,-0.00000259,0.0000184
 5,-0.00000908,0.00007568,-0.00004352,0.00018753,-0.00098186,0.00032653
 ,-0.00013472,-0.00018361,-0.00235617,0.05340121,0.00002543,-0.00000886
 ,0.00003261,-0.00007122,0.00003717,-0.00005729,0.00003705,-0.00000056,
 -0.00000534,-0.00005754,0.00000467,-0.00000014,0.00001207,-0.00000030,
 -0.00000566,-0.00000271,-0.00000115,0.00000126,0.00000679,0.00000027,-
 0.00000121,-0.00000396,-0.00000063,-0.00000048,0.00001341,-0.00000104,
 0.00000434,-0.00000655,-0.00002962,-0.00003934,0.00003789,-0.00000910,
 0.00005346,-0.00000044,0.00000372,0.00000126,0.00001673,0.00007057,0.0
 0001627,-0.00000062,-0.00010954,-0.00002900,0.00006252,0.00011633,0.00
 009460,-0.00004595,-0.00001481,-0.00003174,0.00000951,0.00000446,0.000
 01545,0.00000963,0.00001805,-0.00001469,0.00000244,-0.00000031,0.00001
 172,-0.00001190,-0.00000720,-0.00001276,0.00000868,0.00000276,0.000022
 19,0.00000292,-0.00001351,-0.00001263,-0.00003722,-0.00005894,0.000006
 20,-0.00017003,-0.00011959,-0.00034946,-0.00014143,0.00048735,-0.00045
 665,-0.00098039,0.00161408,0.00295821,0.00423815,-0.00614193,0.0019362
 7,0.03531778,-0.31250539,0.09522749,-0.00135979,-0.00866695,0.00624426
 ,0.00366305,0.00107063,0.00064010,-0.00000302,0.00000061,0.00000420,0.
 00000162,0.00000035,-0.00000107,0.00000117,0.00000021,0.00000004,0.000
 00119,0.00000009,0.00000087,-0.00000432,0.00000213,-0.00000179,0.00000
 852,-0.00000316,0.00000212,-0.00000126,-0.00000150,-0.00000106,0.00000
 224,-0.00000150,-0.00000393,0.00000173,-0.00000040,0.00000124,0.000001
 40,0.00000242,0.00000015,-0.00000288,-0.00000140,-0.00000288,0.0000006
 9,-0.00000030,-0.00000177,-0.00000584,-0.00000163,-0.00000232,0.000001
 36,-0.00000389,-0.00000360,0.00000695,0.00000402,-0.00000287,0.0000112
 7,0.00000522,0.00003240,-0.00001132,0.00005318,-0.00002237,0.00021061,
 -0.00042311,0.00007116,-0.00068548,0.00006388,-0.00144488,-0.03901315,
 0.32495869,-0.00001467,-0.00000277,-0.00000409,-0.00000910,0.00002943,
 -0.00000557,-0.00001488,-0.00000657,-0.00002734,0.00000330,0.00000241,
 0.00000091,-0.00000054,-0.00000024,0.00000162,0.00000008,-0.00000045,-
 0.00000002,-0.00000068,-0.00000042,-0.00000065,-0.00000037,-0.00000093
 ,-0.00000029,-0.00000138,-0.00000060,-0.00000187,0.00001003,-0.0000075
 4,0.00002120,0.00000871,-0.00000182,0.00001403,-0.00000487,0.00000602,
 -0.00000579,0.00006339,0.00002269,-0.00003624,-0.00002956,-0.00001924,
 0.00000709,-0.00001185,-0.00007998,-0.00000390,0.00000095,-0.00000831,
 -0.00000922,0.00000638,-0.00000277,-0.00000184,-0.00000759,-0.00000694
 ,0.00000421,0.00000573,-0.00000706,0.00000153,0.00001023,0.00002258,-0
 .00000213,-0.00001713,-0.00000514,-0.00001204,0.00001580,-0.00001298,0
 .00004541,-0.00002315,0.00001147,0.00003871,-0.00043556,-0.00025548,-0
 .00060726,0.00014278,-0.00052345,-0.00075891,0.00533013,0.00273826,0.0
 0308622,-0.00339556,0.01633663,-0.00070855,-0.00445546,0.09505190,-0.0
 7775779,0.00186517,-0.00805851,0.00666368,0.00390886,0.00090750,0.0048
 6104,0.00000067,0.00000005,0.00000025,0.00000047,0.00000011,0.00000012
 ,-0.00000020,0.00000037,0.00000018,-0.00000048,0.00000063,-0.00000019,
 0.00000073,0.00000128,0.00000045,-0.00000217,-0.00000087,-0.00000218,-
 0.00000138,0.00000064,-0.00000095,0.00000197,-0.00000332,0.00000013,-0
 .00000083,-0.00000035,0.00000057,0.00000089,0.00000100,-0.00000048,0.0
 0000066,0.00000166,0.00000033,-0.00000128,0.00000043,0.00000063,-0.000
 00088,-0.00000012,0.00000072,0.00000198,0.00000102,0.00000348,-0.00001
 091,-0.00000831,0.00000157,0.00001783,-0.00000325,-0.00002074,-0.00002
 474,0.00012355,-0.00006199,-0.00015094,0.00074967,-0.00016249,-0.00216
 891,-0.00169923,-0.00229613,0.00141354,-0.10382580,0.07029910,0.000007
 49,-0.00000838,0.00001031,-0.00001512,0.00002393,-0.00001772,0.0000007
 5,-0.00000069,-0.00000417,-0.00001985,0.00000552,-0.00000056,0.0000067
 3,-0.00000550,-0.00000146,-0.00000430,-0.00000282,0.00000122,0.0000018
 0,-0.00000127,0.00000022,-0.00000177,-0.00000109,-0.00000127,0.0000045
 1,-0.00000146,-0.00000016,-0.00003644,-0.00004682,-0.00002001,0.000067
 25,-0.00001958,0.00001713,0.00000703,0.00000247,0.00000129,-0.00001018
 ,0.00002862,-0.00000026,-0.00003403,-0.00003425,0.00001928,-0.00003389
 ,0.00007157,-0.00003589,-0.00002141,-0.00003019,-0.00001002,0.00000298
 ,-0.00000071,0.00000859,0.00000348,0.00000689,-0.00000807,0.00000036,-
 0.00000053,0.00000748,-0.00000275,-0.00000109,-0.00000843,0.00000371,-
 0.00000070,0.00001003,0.00000743,-0.00000647,0.00000553,0.00002491,-0.
 00002857,-0.00000944,0.00023867,0.00024163,-0.00009507,0.00263967,0.00
 224143,0.00158396,-0.00021154,0.00066884,-0.00062573,-0.00143018,0.004
 41299,0.00310213,-0.01074488,-0.01236073,0.01394491,-0.20083626,-0.082
 90477,0.12466730,0.00669883,0.00391816,-0.00281689,-0.00000175,0.00000
 466,0.00000435,0.00000055,0.00000157,-0.00000037,0.00000088,0.00000088
 ,0.00000016,0.00000065,0.00000063,0.00000070,-0.00000169,0.00000238,-0
 .00000086,-0.00000633,-0.00000299,0.00000735,-0.00000276,0.00000320,-0
 .00000436,0.00000446,-0.00000755,-0.00000470,-0.00000007,-0.00000062,0
 .00000019,0.00000066,0.00000098,0.00000017,-0.00000128,-0.00000045,-0.
 00000151,0.00000052,-0.00000034,-0.00000110,-0.00000243,0.00000003,0.0
 0000100,0.00000147,-0.00000397,-0.00000315,0.00000414,0.00000458,-0.00
 000518,0.00000513,0.00001668,0.00001939,-0.00000067,-0.00003865,0.0000
 0250,-0.00023102,-0.00027107,-0.00035682,-0.00063195,-0.00059493,0.000
 65270,0.00013133,-0.00100326,-0.00211223,0.20490748,0.00007071,-0.0000
 0694,0.00001964,-0.00017372,0.00000548,-0.00001495,0.00010522,0.000034
 64,-0.00000991,-0.00006669,-0.00000393,-0.00000664,0.00001503,0.000010
 19,-0.00000007,0.00000591,0.00000575,-0.00000267,0.00000807,0.00000246
 ,-0.00000607,-0.00000644,0.00000146,0.00000017,0.00001808,0.00000003,0
 .00000902,0.00002437,0.00003914,-0.00010995,0.00000122,-0.00007539,0.0
 0010535,0.00002521,0.00001830,-0.00000345,-0.00010778,0.00010423,0.000
 06366,0.00010233,-0.00022208,-0.00013534,0.00050326,0.00006389,0.00019
 790,-0.00011780,-0.00005427,-0.00005803,0.00001580,0.00000880,0.000040
 32,0.00000846,0.00002869,-0.00003781,0.00000185,-0.00000549,0.00002485
 ,-0.00000877,-0.00000441,-0.00001546,-0.00000459,0.00001482,0.00002217
 ,0.00002232,-0.00004103,-0.00000429,-0.00024288,-0.00003862,0.00008504
 ,-0.00120376,-0.00016593,0.00044641,0.00261484,-0.00366606,0.00323821,
 0.00056929,-0.00064353,-0.00041404,0.00392097,-0.00032633,0.00098376,0
 .01286181,0.01063334,-0.00966966,-0.08303485,-0.10570126,0.07404049,-0
 .02070340,-0.00664661,0.01632807,0.00000226,-0.00001499,-0.00000111,0.
 00000441,-0.00000230,-0.00000086,-0.00000058,-0.00000100,-0.00000072,0
 .00000028,-0.00000059,-0.00000051,-0.00000631,-0.00000082,-0.00000226,
 -0.00001459,-0.00001279,0.00001339,0.00000232,0.00000698,-0.00000317,0
 .00000014,-0.00001779,-0.00002095,0.00000313,-0.00000085,0.00000307,0.
 00000267,0.00000522,0.00000002,-0.00000537,-0.00000269,-0.00000648,0.0
 0000087,-0.00000079,-0.00000346,-0.00000632,-0.00000368,-0.00000503,0.
 00000296,-0.00000417,-0.00000384,0.00000041,0.00000375,-0.00000263,0.0
 0000812,0.00000376,0.00002188,0.00001616,-0.00006199,0.00002140,-0.000
 26676,-0.00005257,-0.00027431,0.00057230,0.00034539,-0.00051017,-0.001
 46909,0.00015213,-0.00105624,0.08673945,0.10556600,-0.00004978,-0.0000
 0664,-0.00002868,0.00008855,0.00000659,0.00003446,-0.00005881,-0.00000
 175,-0.00000093,0.00004604,-0.00000133,0.00000464,-0.00000717,-0.00000
 504,0.00000673,-0.00000151,-0.00000233,0.00000020,-0.00000612,-0.00000
 247,0.00000006,0.00000020,-0.00000235,-0.00000159,-0.00000914,-0.00000
 306,-0.00000844,-0.00004362,-0.00003913,0.00002017,0.00006748,-0.00004
 151,-0.00004927,0.00000708,-0.00000379,0.00000483,0.00007050,-0.000070
 02,-0.00010279,-0.00006237,0.00013522,0.00006594,-0.00026037,-0.000059
 02,-0.00008415,0.00003243,-0.00000710,0.00001467,-0.00001076,-0.000010
 55,-0.00001334,-0.00000719,-0.00001542,0.00001346,0.00000171,-0.000002
 98,-0.00000554,0.00000935,0.00001569,0.00000006,-0.00000229,-0.0000191
 1,-0.00000965,-0.00000182,-0.00000304,0.00002270,0.00011912,0.00003453
 ,-0.00004967,0.00034652,0.00010426,-0.00009889,0.00194378,0.00325235,0
 .00491177,-0.00079078,-0.00018072,-0.00035138,0.00328868,0.00062090,0.
 00533654,0.00374821,0.00440882,0.00087982,0.12430293,0.07446790,-0.141
 48738,0.00741148,0.00187838,-0.00038094,0.00000256,0.00000254,0.000001
 27,-0.00000014,0.00000119,0.00000115,-0.00000068,0.00000141,0.00000030
 ,-0.00000122,0.00000191,-0.00000051,0.00000382,0.00000315,0.00000117,-
 0.00001541,0.00000541,0.00000483,-0.00000278,0.00000508,-0.00000303,0.
 00000190,-0.00000265,0.00000247,-0.00000147,0.00000011,-0.00000082,-0.
 00000136,-0.00000216,0.00000035,0.00000245,0.00000219,0.00000199,-0.00
 000119,-0.00000003,0.00000123,0.00000103,0.00000182,0.00000314,0.00000
 025,-0.00000057,-0.00000011,0.00000251,-0.00000046,-0.00000468,-0.0000
 0399,0.00001293,-0.00000425,0.00004201,0.00007679,-0.00001491,-0.00039
 364,-0.00027333,-0.00073375,0.00010224,0.00017252,-0.00012755,-0.00193
 083,-0.00135515,-0.00274345,-0.13616640,-0.08156551,0.13766830,-0.0000
 9344,0.00009063,-0.00021414,0.00031943,-0.00030545,0.00003807,0.000456
 17,-0.00055913,0.00002397,0.00013332,-0.00003041,-0.00007808,-0.000014
 53,-0.00002408,0.00004458,-0.00000385,-0.00000779,-0.00001166,-0.00002
 415,-0.00000246,0.00001208,0.00001568,0.00000263,-0.00000886,-0.000064
 82,0.00001813,-0.00001965,0.00039284,0.00205709,0.00062978,-0.00071969
 ,-0.00013111,-0.00002998,-0.00013934,-0.00010496,-0.00024119,0.0001731
 2,-0.00011559,0.00059694,0.00012733,-0.00010034,-0.00025866,-0.0001079
 9,0.00009679,0.00005418,0.00002419,0.00001613,0.00000434,-0.00004782,-
 0.00000554,0.00001847,-0.00000069,-0.00000815,0.00000622,-0.00000972,0
 .00000732,0.00000046,0.00000724,-0.00000751,-0.00000571,0.00000276,-0.
 00001040,0.00002043,-0.00001760,0.00001416,-0.00002556,0.00014448,-0.0
 0001291,-0.00014037,-0.00067010,0.00034907,-0.00170759,-0.01067443,0.0
 1148945,0.00351800,-0.00013480,-0.00165709,0.00457518,0.00022027,-0.00
 091659,-0.00020769,0.00300890,0.00118356,0.00189413,0.00161081,-0.0008
 1833,0.00185917,-0.25548277,0.12266204,0.06529981,0.00001721,0.0000280
 9,-0.00000994,-0.00000413,0.00000118,0.00000289,-0.00000314,0.00000086
 ,-0.00000005,-0.00000519,0.00000070,-0.00000146,0.00001972,-0.00000557
 ,0.00000777,-0.00006516,-0.00005133,-0.00005342,-0.00000063,0.00004016
 ,0.00001674,-0.00000752,-0.00003075,0.00000056,0.00000251,0.00000189,-
 0.00000112,-0.00000560,-0.00000598,0.00000263,0.00000216,0.00000032,0.
 00000070,0.00000109,-0.00000188,-0.00000211,0.00000167,0.00000125,0.00
 000194,-0.00000137,-0.00000677,-0.00000925,0.00001626,0.00001040,-0.00
 000238,-0.00000312,0.00001535,0.00003652,-0.00006413,0.00014963,-0.000
 06389,-0.00058052,0.00064000,0.00015686,-0.00026863,-0.00009433,-0.000
 41035,-0.00002553,-0.00009251,0.00008703,-0.00049030,-0.00081050,-0.00
 181197,0.26303352,-0.00017267,-0.00010565,-0.00034139,-0.00002103,-0.0
 0161158,0.00114104,-0.00085171,0.00136008,-0.00072506,0.00091010,0.000
 13551,-0.00004924,-0.00015269,-0.00004095,0.00009877,-0.00001081,-0.00
 001650,-0.00001806,-0.00009492,-0.00001048,0.00004332,0.00007117,-0.00
 001061,-0.00002277,-0.00023173,-0.00002244,-0.00010422,0.00115876,-0.0
 0267416,-0.00041493,-0.00078591,-0.00319337,-0.00084507,0.00014487,0.0
 0020205,-0.00003672,0.00045864,-0.00011668,0.00030062,0.00034200,0.000
 22759,-0.00023414,-0.00036906,0.00011219,0.00001515,0.00011085,0.00001
 035,0.00007423,-0.00010214,0.00000750,-0.00003160,-0.00001990,-0.00004
 065,0.00002663,-0.00001104,0.00000623,-0.00002088,0.00001938,0.0000035
 6,0.00001116,0.00000079,-0.00002400,-0.00000977,-0.00002996,0.00004933
 ,-0.00000736,0.00028064,0.00002884,-0.00021530,-0.00102231,0.00022232,
 -0.00092881,-0.01155436,0.01021602,0.00349191,-0.00129372,0.00019311,0
 .00356081,-0.00073074,-0.00073778,0.00033172,0.00078957,-0.00371321,0.
 00414542,0.02453280,-0.00890326,-0.00779775,0.12201528,-0.12626022,-0.
 02831278,0.00002995,0.00002622,-0.00002382,-0.00001550,0.00000368,0.00
 000807,-0.00000467,0.00000415,0.00000107,-0.00001383,0.00000543,-0.000
 00552,0.00002496,0.00000721,0.00001248,0.00002603,0.00010715,0.0000596
 6,0.00009401,0.00001737,0.00011487,0.00003461,-0.00000475,0.00004855,0
 .00000139,0.00000248,-0.00000217,-0.00001595,-0.00001646,0.00000549,0.
 00000672,0.00000287,0.00000549,-0.00000079,-0.00000106,0.00000063,0.00
 000765,0.00000442,0.00000568,-0.00000351,-0.00000014,-0.00000397,0.000
 01048,-0.00000416,0.00000185,0.00000811,0.00000915,0.00000506,0.000006
 24,0.00027431,-0.00008888,-0.00060165,0.00049686,0.00029301,-0.0000855
 0,-0.00006370,-0.00035483,0.00108814,-0.00054668,-0.00041063,-0.001017
 66,0.00072443,-0.00153449,-0.13295937,0.13365810,0.00000288,0.00000457
 ,0.00001871,-0.00022105,0.00162483,-0.00076872,-0.00002052,-0.00052859
 ,0.00003237,-0.00047058,0.00003849,0.00000983,0.00003853,0.00002981,-0
 .00002459,0.00002430,0.00000348,0.00000464,0.00003608,0.00000677,-0.00
 003590,-0.00004851,-0.00000630,0.00000059,0.00007853,0.00001638,0.0000
 3516,0.00060129,-0.00037834,0.00021485,-0.00049654,-0.00183390,0.00026
 857,0.00024813,0.00027024,0.00000180,-0.00003888,0.00009154,0.00027800
 ,-0.00015336,-0.00033250,-0.00016505,0.00026995,-0.00018910,0.00000361
 ,-0.00008295,-0.00003030,-0.00005124,0.00003544,-0.00000652,0.00005315
 ,-0.00000459,0.00000512,-0.00002626,0.00000721,-0.00000740,0.00002581,
 0.00000243,0.00001936,-0.00001710,-0.00001559,0.00000596,0.00000775,0.
 00002351,-0.00004874,0.00002224,-0.00011189,-0.00002958,0.00014592,-0.
 00146178,-0.00206749,-0.00214078,0.01360519,-0.00858422,-0.00013068,0.
 00434028,0.00381865,0.00296262,-0.00034180,0.00014977,-0.00076197,0.00
 239749,0.00394395,0.00437466,-0.00893936,0.00614440,0.00684556,0.06632
 806,-0.02925528,-0.06218384,0.00003621,-0.00003780,-0.00001567,0.00001
 042,0.00000028,-0.00000336,0.00000121,0.00000026,-0.00000240,0.0000040
 1,0.00000184,0.00000276,-0.00002071,0.00001365,-0.00001113,-0.00006167
 ,0.00011400,0.00005524,-0.00000077,0.00003996,0.00005880,-0.00000314,-
 0.00004522,-0.00005175,0.00000023,0.00000024,0.00000229,0.00000740,0.0
 0001146,-0.00000270,-0.00000326,-0.00000103,-0.00000514,-0.00000044,-0
 .00000032,-0.00000313,-0.00000429,-0.00000310,-0.00000430,0.00000252,-
 0.00000403,-0.00000427,-0.00000885,0.00000628,-0.00000371,-0.00001129,
 -0.00000223,-0.00001700,0.00002692,0.00050108,-0.00028519,0.00062353,-
 0.00043563,-0.00006402,-0.00044671,-0.00036094,-0.00067593,-0.00043272
 ,0.00030799,0.00017892,-0.00175610,-0.00171923,-0.00269658,-0.07359437
 ,0.02873744,0.05454857\\-0.00000096,-0.00000331,-0.00000111,-0.0000004
 8,-0.00000153,0.00000004,-0.00000066,0.00000038,-0.00000055,0.00000052
 ,0.00000146,0.00000178,0.00000097,0.00000596,0.00000297,0.00000106,0.0
 0000515,0.00000357,0.00000020,0.00000256,0.00000389,-0.00000067,-0.000
 00081,0.00000314,-0.00000097,-0.00000239,0.00000124,0.00000124,0.00000
 143,-0.00000013,0.00000060,0.00000190,-0.00000106,0.00000114,0.0000059
 6,-0.00000144,0.00000142,0.00000162,-0.00000089,-0.00000017,-0.0000040
 8,-0.00000469,-0.00000085,-0.00000583,-0.00000311,-0.00000037,-0.00000
 153,-0.00000330,0.00000132,-0.00000021,-0.00000465,0.00000021,-0.00000
 331,-0.00000771,0.00000171,-0.00000135,-0.00000942,0.00000161,0.000000
 11,-0.00000859,0.00000153,0.00000188,-0.00000559,0.00000051,-0.0000001
 6,-0.00000103,-0.00000229,-0.00000685,-0.00000351,-0.00000139,-0.00000
 332,-0.00000122,-0.00000092,-0.00000179,0.00000466,-0.00000035,-0.0000
 0230,0.00000639,-0.00000156,-0.00000229,0.00000824,-0.00000179,0.00000
 020,0.00001016,-0.00000098,0.00000115,0.00000941,-0.00000136,-0.000000
 17,0.00000510,0.00000151,0.00000667,0.00000238,0.00000176,0.00000799,0
 .00000460,0.00000030,0.00000312,0.00000485,-0.00000125,-0.00000276,0.0
 0000297,-0.00000138,-0.00000376,0.00000107,0.00000128,0.00000376,-0.00
 000040,0.00000247,0.00000429,-0.00000584,0.00000237,0.00000809,-0.0000
 0106,-0.00000071,-0.00000521,-0.00000829,-0.00000012,-0.00000409,-0.00
 000889,0.00000154,-0.00000184,-0.00001301,0.00000178,0.00000164,-0.000
 01069,0.00000131,0.00000257,-0.00000394,0.00000201,0.00000411,-0.00000
 543,-0.00000055,-0.00000278,-0.00000300,0.00000047,0.00000058,-0.00000
 008,-0.00000315,-0.00000627,0.00000191,-0.00000331,-0.00000649,0.00000
 159,-0.00000242,-0.00000331,0.00000869,-0.00000159,0.00000096,0.000012
 72,-0.00000062,0.00000323,0.00001104,0.00000004,0.00000099,0.00000620\
 \\@
 The archive entry for this job was punched.


     "IF I COULD JUST GET IT ON PAPER"
 LIFE AND INK, THEY RUN OUT AT THE SAME TIME,
 OR SO SAID MY OLD FRIEND THE SQUID.
     -- JIMMY BUFFETT, 1981
 Job cpu time:       0 days  9 hours 48 minutes  5.0 seconds.
 Elapsed time:       0 days  0 hours 36 minutes 47.1 seconds.
 File lengths (MBytes):  RWF=   1792 Int=      0 D2E=      0 Chk=     46 Scr=      1
 Normal termination of Gaussian 16 at Tue Sep 26 16:39:21 2023.
